/*--------------------------------*- C++ -*----------------------------------*\
| =========                 |                                                 |
| \\      /  F ield         | OpenFOAM: The Open Source CFD Toolbox           |
|  \\    /   O peration     | Version:  v2006                                 |
|   \\  /    A nd           | Website:  www.openfoam.com                      |
|    \\/     M anipulation  |                                                 |
\*---------------------------------------------------------------------------*/
FoamFile
{
    version     2.0;
    format      ascii;
    class       volScalarField;
    location    "160";
    object      alphat;
}
// * * * * * * * * * * * * * * * * * * * * * * * * * * * * * * * * * * * * * //

dimensions      [1 -1 -1 0 0 0 0];


internalField   nonuniform List<scalar> 
65536
(
2.83667e-06
1.81854e-06
1.94538e-06
2.21583e-06
2.19891e-06
2.10424e-06
2.09625e-06
2.0724e-06
1.97029e-06
1.84573e-06
1.63694e-06
1.24821e-06
1.15871e-06
1.05091e-06
9.6481e-07
8.38835e-07
6.25615e-07
4.4145e-07
4.64401e-07
6.00284e-07
6.2834e-07
5.43983e-07
4.36137e-07
4.55938e-07
5.38535e-07
5.05986e-07
5.59269e-07
5.9875e-07
5.60283e-07
4.82065e-07
3.3435e-07
2.72669e-07
3.03284e-07
4.34989e-07
6.86742e-07
8.69268e-07
1.07329e-06
1.36693e-06
2.15394e-06
3.06167e-06
4.50819e-06
5.83363e-06
6.93389e-06
7.88018e-06
8.64911e-06
9.36561e-06
9.97157e-06
1.04923e-05
1.09638e-05
1.13978e-05
1.17914e-05
1.21333e-05
1.24594e-05
1.27521e-05
1.30092e-05
1.32405e-05
1.34711e-05
1.36642e-05
1.38347e-05
1.39974e-05
1.41401e-05
1.42594e-05
1.43756e-05
1.44717e-05
1.45535e-05
1.46178e-05
1.46726e-05
1.47024e-05
1.47318e-05
1.474e-05
1.47379e-05
1.47203e-05
1.46921e-05
1.46501e-05
1.46002e-05
1.45335e-05
1.44597e-05
1.43698e-05
1.42693e-05
1.41583e-05
1.40387e-05
1.39061e-05
1.3764e-05
1.361e-05
1.34508e-05
1.3276e-05
1.30942e-05
1.29024e-05
1.26986e-05
1.24884e-05
1.22637e-05
1.20338e-05
1.17888e-05
1.15376e-05
1.12745e-05
1.10076e-05
1.07214e-05
1.04389e-05
1.01376e-05
9.84017e-06
9.52293e-06
9.21115e-06
8.88062e-06
8.55105e-06
8.20559e-06
7.86016e-06
7.49721e-06
7.1361e-06
6.75815e-06
6.38403e-06
5.9994e-06
5.61425e-06
5.21887e-06
4.80546e-06
4.38222e-06
3.91529e-06
3.44923e-06
2.92108e-06
2.39606e-06
1.77912e-06
1.23263e-06
6.44009e-07
2.87698e-07
8.85982e-08
3.61409e-08
1.17839e-08
7.06337e-09
2.12745e-09
5.2009e-09
1.42631e-08
3.03544e-08
7.33252e-08
1.59806e-07
4.28722e-07
8.11845e-07
1.42407e-06
2.00944e-06
2.66981e-06
3.24226e-06
3.82329e-06
4.31832e-06
4.81687e-06
5.25119e-06
5.69361e-06
6.09014e-06
6.49846e-06
6.87646e-06
7.26005e-06
7.62848e-06
7.99502e-06
8.35223e-06
8.7057e-06
9.05084e-06
9.39118e-06
9.72243e-06
1.00455e-05
1.03628e-05
1.06712e-05
1.09723e-05
1.12639e-05
1.1552e-05
1.1825e-05
1.20937e-05
1.23494e-05
1.26008e-05
1.28387e-05
1.30686e-05
1.32875e-05
1.34984e-05
1.36973e-05
1.3887e-05
1.40697e-05
1.42338e-05
1.43967e-05
1.45381e-05
1.4679e-05
1.47965e-05
1.4916e-05
1.50168e-05
1.51137e-05
1.51864e-05
1.52626e-05
1.53088e-05
1.53621e-05
1.53874e-05
1.54131e-05
1.54149e-05
1.54164e-05
1.53875e-05
1.53666e-05
1.53113e-05
1.52612e-05
1.51752e-05
1.51079e-05
1.49761e-05
1.48795e-05
1.47144e-05
1.45901e-05
1.44072e-05
1.42412e-05
1.39914e-05
1.37862e-05
1.35051e-05
1.32344e-05
1.29129e-05
1.25822e-05
1.21921e-05
1.17537e-05
1.12566e-05
1.07095e-05
1.00145e-05
9.48739e-06
7.81793e-06
4.16641e-06
1.63841e-06
4.40878e-07
9.40149e-08
7.00938e-08
1.06563e-07
1.12708e-07
1.3186e-07
1.205e-07
2.93643e-07
5.55225e-07
7.38578e-07
9.15452e-07
1.07063e-06
1.25645e-06
1.4698e-06
1.65449e-06
1.9059e-06
2.10346e-06
1.76374e-06
1.23958e-06
1.18607e-06
1.08394e-06
1.0315e-06
1.22908e-06
1.7606e-06
3.24391e-06
4.82063e-06
6.32082e-06
7.45873e-06
7.78728e-06
7.8209e-06
7.56856e-06
7.41396e-06
7.13912e-06
6.82425e-06
6.37884e-06
5.73254e-06
5.15769e-06
4.60736e-06
4.23068e-06
3.79493e-06
3.25493e-06
3.81889e-07
2.34624e-07
2.12488e-07
2.30823e-07
3.87515e-07
2.41284e-07
6.10426e-07
7.00919e-07
8.97572e-07
1.1766e-06
1.64142e-06
1.8936e-06
2.07779e-06
2.18059e-06
2.13149e-06
2.06356e-06
2.01775e-06
1.91133e-06
1.9e-06
1.96601e-06
1.99478e-06
1.99058e-06
1.64364e-06
1.5212e-06
1.39836e-06
1.27612e-06
1.29652e-06
1.26046e-06
1.19908e-06
1.09555e-06
1.05128e-06
1.23884e-06
1.53082e-06
2.12762e-06
2.67057e-06
3.08947e-06
3.24015e-06
3.63195e-06
4.60293e-06
6.28257e-06
7.9956e-06
9.14708e-06
1.01375e-05
1.07324e-05
1.09278e-05
1.1347e-05
1.1514e-05
1.15899e-05
1.17206e-05
1.17739e-05
1.18715e-05
1.19069e-05
1.19382e-05
1.19793e-05
1.19845e-05
1.19927e-05
1.19846e-05
1.19647e-05
1.19462e-05
1.19084e-05
1.18645e-05
1.18252e-05
1.17615e-05
1.17032e-05
1.16311e-05
1.15502e-05
1.1465e-05
1.13715e-05
1.12647e-05
1.11588e-05
1.104e-05
1.09174e-05
1.07859e-05
1.06512e-05
1.05039e-05
1.03572e-05
1.01994e-05
1.00356e-05
9.86864e-06
9.69606e-06
9.51591e-06
9.33111e-06
9.13981e-06
8.9398e-06
8.74583e-06
8.52938e-06
8.32097e-06
8.09996e-06
7.87199e-06
7.64233e-06
7.40451e-06
7.15614e-06
6.91002e-06
6.64331e-06
6.38651e-06
6.10411e-06
5.83094e-06
5.5428e-06
5.25424e-06
4.95346e-06
4.6564e-06
4.34376e-06
4.03493e-06
3.71205e-06
3.4029e-06
3.06928e-06
2.7574e-06
2.43173e-06
2.12569e-06
1.80135e-06
1.51092e-06
1.19455e-06
9.02698e-07
6.05203e-07
3.72275e-07
1.85144e-07
9.76938e-08
4.24332e-08
2.20234e-08
1.24441e-08
1.0322e-08
1.05818e-08
1.14489e-08
1.38203e-08
1.44199e-08
1.86469e-08
1.87515e-08
2.0647e-08
2.08678e-08
1.88222e-08
1.77216e-08
1.52641e-08
1.38789e-08
1.1947e-08
1.16195e-08
1.20675e-08
1.44072e-08
2.62949e-08
4.95804e-08
1.25593e-07
2.46634e-07
4.90215e-07
7.50092e-07
1.08399e-06
1.3703e-06
1.71739e-06
2.01338e-06
2.35329e-06
2.66281e-06
3.00328e-06
3.31258e-06
3.65672e-06
3.96718e-06
4.30345e-06
4.61096e-06
4.9377e-06
5.22972e-06
5.54542e-06
5.82798e-06
6.12509e-06
6.39461e-06
6.6798e-06
6.9348e-06
7.20169e-06
7.44134e-06
7.69775e-06
7.9203e-06
8.16075e-06
8.37662e-06
8.60068e-06
8.8031e-06
9.02056e-06
9.20722e-06
9.41049e-06
9.59009e-06
9.78056e-06
9.94816e-06
1.01251e-05
1.02829e-05
1.04467e-05
1.05961e-05
1.07449e-05
1.08805e-05
1.10178e-05
1.1137e-05
1.12599e-05
1.13675e-05
1.14754e-05
1.15661e-05
1.16636e-05
1.17327e-05
1.18204e-05
1.18748e-05
1.19342e-05
1.19823e-05
1.20186e-05
1.20559e-05
1.20732e-05
1.20831e-05
1.2082e-05
1.20762e-05
1.20448e-05
1.20238e-05
1.19464e-05
1.19004e-05
1.17896e-05
1.1698e-05
1.15413e-05
1.13892e-05
1.10565e-05
1.07959e-05
1.0684e-05
8.48265e-06
5.76283e-06
4.32916e-06
3.07338e-06
2.24766e-06
2.14687e-06
2.07337e-06
1.96858e-06
1.95487e-06
1.87284e-06
1.72749e-06
1.4973e-06
1.4553e-06
1.7419e-06
1.96195e-06
2.05034e-06
2.33306e-06
2.61636e-06
2.7746e-06
2.60517e-06
2.31146e-06
2.20574e-06
2.15239e-06
2.27174e-06
2.4152e-06
2.90689e-06
3.47023e-06
4.09985e-06
4.46286e-06
4.58131e-06
4.25785e-06
3.38869e-06
2.58661e-06
1.84035e-06
1.37876e-06
1.03397e-06
1.33198e-06
1.38915e-06
1.06597e-06
1.04927e-06
1.18853e-06
1.28704e-06
1.20968e-06
8.42713e-07
3.79681e-08
3.69373e-08
4.3194e-08
5.08097e-08
6.37444e-08
4.91369e-08
9.38743e-08
1.17692e-07
9.43358e-08
1.97201e-07
4.47758e-07
8.94072e-07
1.49497e-06
2.02575e-06
2.30965e-06
2.42748e-06
2.55675e-06
2.57299e-06
2.60085e-06
2.73231e-06
3.11617e-06
3.34624e-06
2.89878e-06
2.43718e-06
1.84441e-06
1.20065e-06
1.19921e-06
1.15161e-06
9.96234e-07
6.31379e-07
3.7537e-07
6.39548e-07
1.43898e-06
2.8307e-06
4.05082e-06
4.35287e-06
4.34099e-06
4.78959e-06
6.37005e-06
8.57386e-06
1.02597e-05
1.13693e-05
1.238e-05
1.25392e-05
1.24207e-05
1.27733e-05
1.25338e-05
1.23265e-05
1.22279e-05
1.20159e-05
1.18817e-05
1.169e-05
1.14899e-05
1.134e-05
1.11298e-05
1.09406e-05
1.07497e-05
1.05323e-05
1.03415e-05
1.01203e-05
9.90788e-06
9.69973e-06
9.47533e-06
9.26332e-06
9.0353e-06
8.80774e-06
8.57435e-06
8.33241e-06
8.08954e-06
7.83764e-06
7.58646e-06
7.32255e-06
7.06314e-06
6.78784e-06
6.51456e-06
6.23307e-06
5.94851e-06
5.66091e-06
5.37022e-06
5.07995e-06
4.78483e-06
4.492e-06
4.19661e-06
3.90217e-06
3.61966e-06
3.32513e-06
3.05031e-06
2.76755e-06
2.49883e-06
2.2321e-06
1.96515e-06
1.71303e-06
1.46932e-06
1.20594e-06
9.94456e-07
7.45625e-07
5.53638e-07
3.6454e-07
2.35402e-07
1.24124e-07
7.97624e-08
3.38675e-08
1.97377e-08
9.38922e-09
6.33779e-09
3.12595e-09
3.23607e-09
2.10792e-09
3.49407e-09
2.96693e-09
5.3642e-09
6.35646e-09
9.23715e-09
1.21915e-08
1.53982e-08
1.97903e-08
2.2807e-08
2.65934e-08
2.82272e-08
2.97415e-08
2.98731e-08
2.94488e-08
2.83527e-08
2.73957e-08
2.63409e-08
2.55818e-08
2.54286e-08
2.48732e-08
2.41137e-08
2.54442e-08
2.59922e-08
2.71306e-08
2.7898e-08
2.89305e-08
2.95261e-08
3.0114e-08
3.0136e-08
2.86834e-08
2.70099e-08
2.279e-08
1.96834e-08
1.53316e-08
1.17396e-08
9.58516e-09
6.24688e-09
6.20498e-09
3.49178e-09
4.26587e-09
3.16661e-09
4.95944e-09
4.64742e-09
1.0493e-08
1.35836e-08
3.19384e-08
4.95803e-08
1.12349e-07
1.69204e-07
3.14353e-07
4.43442e-07
6.76049e-07
8.49543e-07
1.12657e-06
1.33905e-06
1.60647e-06
1.84414e-06
2.12279e-06
2.3671e-06
2.66002e-06
2.92432e-06
3.22417e-06
3.49566e-06
3.8097e-06
4.08837e-06
4.40198e-06
4.6893e-06
5.00821e-06
5.29051e-06
5.60565e-06
5.89059e-06
6.1939e-06
6.47805e-06
6.76989e-06
7.04472e-06
7.32706e-06
7.58684e-06
7.85805e-06
8.10661e-06
8.37036e-06
8.60518e-06
8.85969e-06
9.08821e-06
9.32886e-06
9.55147e-06
9.77348e-06
9.99653e-06
1.02026e-05
1.04275e-05
1.06392e-05
1.08457e-05
1.1051e-05
1.12422e-05
1.14252e-05
1.16474e-05
1.17836e-05
1.20078e-05
1.21453e-05
1.23235e-05
1.24422e-05
1.26263e-05
1.2614e-05
1.26408e-05
1.30232e-05
1.13229e-05
8.53379e-06
6.78629e-06
5.31917e-06
3.9865e-06
3.36758e-06
3.00266e-06
2.63979e-06
2.50069e-06
2.6032e-06
2.45042e-06
2.12666e-06
2.22647e-06
2.30838e-06
2.33652e-06
2.42291e-06
2.90602e-06
3.40727e-06
3.58772e-06
3.12969e-06
2.52484e-06
2.29298e-06
2.21835e-06
1.96108e-06
1.70915e-06
2.35353e-06
2.74702e-06
2.81112e-06
2.57873e-06
2.32031e-06
1.90272e-06
9.65682e-07
3.81816e-07
1.14553e-07
4.85982e-08
2.06795e-08
2.15043e-08
3.54167e-08
3.45664e-08
3.66903e-08
4.15217e-08
5.97497e-08
8.15292e-08
6.45708e-08
4.82655e-08
4.41138e-08
4.54155e-08
5.15909e-08
5.08554e-08
5.08117e-08
5.75349e-08
6.17829e-08
5.02876e-08
5.86081e-08
8.24546e-08
2.00399e-07
5.31398e-07
9.81624e-07
1.3345e-06
1.69566e-06
1.96722e-06
2.09929e-06
2.01563e-06
2.25972e-06
3.09646e-06
3.75738e-06
3.49957e-06
2.73783e-06
1.25268e-06
1.46343e-07
1.72045e-08
2.38063e-08
2.36567e-09
2.88764e-08
1.7851e-09
3.79923e-09
5.71e-07
2.8359e-06
4.78628e-06
5.2921e-06
5.30074e-06
6.19598e-06
8.1776e-06
1.05082e-05
1.19688e-05
1.28027e-05
1.33388e-05
1.28856e-05
1.24936e-05
1.25363e-05
1.18257e-05
1.13436e-05
1.10123e-05
1.05013e-05
1.01293e-05
9.72335e-06
9.28895e-06
8.93187e-06
8.50959e-06
8.12803e-06
7.73862e-06
7.32756e-06
6.94576e-06
6.53283e-06
6.13677e-06
5.75079e-06
5.35628e-06
4.98046e-06
4.59141e-06
4.22356e-06
3.85324e-06
3.49419e-06
3.15437e-06
2.80822e-06
2.50236e-06
2.18516e-06
1.90703e-06
1.61378e-06
1.34933e-06
1.09024e-06
8.42127e-07
6.2899e-07
4.25671e-07
2.89945e-07
1.64878e-07
1.02251e-07
5.56092e-08
3.14342e-08
1.99852e-08
1.09403e-08
9.84579e-09
5.34e-09
6.36446e-09
5.46609e-09
5.71798e-09
6.55567e-09
8.87599e-09
8.46234e-09
1.3243e-08
1.37744e-08
1.7872e-08
2.0635e-08
2.45718e-08
2.75351e-08
2.98848e-08
3.31935e-08
3.50736e-08
3.61753e-08
3.65251e-08
3.76699e-08
3.5887e-08
3.74635e-08
3.2808e-08
3.5069e-08
3.05868e-08
3.11112e-08
2.88311e-08
2.79014e-08
2.68975e-08
2.58486e-08
2.54283e-08
2.4758e-08
2.47402e-08
2.46062e-08
2.49472e-08
2.51878e-08
2.54556e-08
2.57252e-08
2.59026e-08
2.56686e-08
2.63077e-08
2.62344e-08
2.60665e-08
2.65591e-08
2.62545e-08
2.62007e-08
2.67865e-08
2.68916e-08
2.63391e-08
2.6079e-08
2.56848e-08
2.54907e-08
2.53126e-08
2.5828e-08
2.59289e-08
2.68575e-08
2.7754e-08
2.82106e-08
3.10036e-08
2.95306e-08
3.41149e-08
3.25743e-08
3.53755e-08
3.47266e-08
3.65039e-08
3.50479e-08
3.5307e-08
3.38428e-08
3.20661e-08
2.98334e-08
2.69077e-08
2.485e-08
2.07487e-08
1.90619e-08
1.45579e-08
1.38715e-08
1.02586e-08
9.15097e-09
8.18661e-09
7.34187e-09
6.57082e-09
8.40579e-09
7.69088e-09
1.31341e-08
1.46303e-08
2.89175e-08
4.26598e-08
7.43221e-08
1.29369e-07
2.23252e-07
3.28905e-07
5.22259e-07
7.02147e-07
9.58696e-07
1.18074e-06
1.46434e-06
1.72991e-06
2.02861e-06
2.32009e-06
2.64478e-06
2.96483e-06
3.32912e-06
3.67818e-06
4.06596e-06
4.45026e-06
4.84637e-06
5.25588e-06
5.66109e-06
6.08482e-06
6.49832e-06
6.93722e-06
7.36099e-06
7.78089e-06
8.2206e-06
8.64707e-06
9.05874e-06
9.53792e-06
9.90893e-06
1.04157e-05
1.08303e-05
1.13255e-05
1.17455e-05
1.23015e-05
1.27173e-05
1.30559e-05
1.401e-05
1.33416e-05
1.09075e-05
9.00261e-06
7.33018e-06
5.50456e-06
4.26066e-06
3.30368e-06
2.3112e-06
1.95506e-06
2.38777e-06
2.57608e-06
2.35984e-06
2.20211e-06
1.88251e-06
1.59213e-06
1.78081e-06
2.44904e-06
2.93646e-06
2.97668e-06
2.23644e-06
1.30837e-06
8.31782e-07
8.94441e-07
2.69915e-07
3.57079e-07
7.66524e-07
1.26015e-06
1.13322e-06
9.3256e-07
6.9319e-07
5.50703e-07
1.48705e-07
7.31073e-08
6.04139e-08
6.10092e-08
7.26148e-08
8.29333e-08
8.0255e-08
7.33212e-08
6.43815e-08
6.00826e-08
4.89364e-08
4.64085e-08
4.72177e-08
4.37415e-08
3.89465e-08
3.79691e-08
4.08713e-08
4.41036e-08
4.53575e-08
4.80945e-08
5.07551e-08
5.12604e-08
4.51497e-08
4.63443e-08
7.61873e-08
1.46388e-07
2.8428e-07
4.22927e-07
6.54133e-07
8.54224e-07
1.01544e-06
9.87733e-07
1.16773e-06
2.37163e-06
3.52801e-06
3.60862e-06
2.73125e-06
6.16438e-07
1.98506e-09
5.83866e-08
1.13078e-07
7.07754e-08
9.51631e-08
1.37174e-07
1.20694e-07
2.4466e-07
2.41829e-06
5.09247e-06
6.01659e-06
6.18309e-06
7.49183e-06
9.61706e-06
1.18396e-05
1.29869e-05
1.33625e-05
1.31655e-05
1.21264e-05
1.14352e-05
1.09766e-05
9.81591e-06
9.05919e-06
8.44067e-06
7.5752e-06
6.95679e-06
6.28939e-06
5.60472e-06
5.03634e-06
4.4359e-06
3.91622e-06
3.41418e-06
2.94074e-06
2.52229e-06
2.09577e-06
1.73727e-06
1.41579e-06
1.10196e-06
8.41751e-07
5.8588e-07
4.10947e-07
2.56826e-07
1.59038e-07
1.0764e-07
6.17296e-08
4.92036e-08
3.20021e-08
2.85458e-08
2.20671e-08
2.19813e-08
1.98475e-08
2.05616e-08
2.15767e-08
2.12577e-08
2.42135e-08
2.39695e-08
2.62281e-08
2.68896e-08
2.79665e-08
2.88482e-08
2.86189e-08
2.94807e-08
2.90035e-08
2.90294e-08
2.7895e-08
2.83075e-08
2.68347e-08
2.59967e-08
2.6239e-08
2.43892e-08
2.44674e-08
2.37095e-08
2.33987e-08
2.27851e-08
2.27215e-08
2.26173e-08
2.24144e-08
2.23377e-08
2.25526e-08
2.27601e-08
2.28635e-08
2.33299e-08
2.3257e-08
2.45301e-08
2.39411e-08
2.53717e-08
2.50038e-08
2.59642e-08
2.61218e-08
2.65778e-08
2.69629e-08
2.70687e-08
2.71499e-08
2.70146e-08
2.70707e-08
2.71219e-08
2.733e-08
2.71337e-08
2.67826e-08
2.70192e-08
2.65808e-08
2.63856e-08
2.62213e-08
2.61851e-08
2.66252e-08
2.64216e-08
2.71094e-08
2.77236e-08
2.80147e-08
2.79485e-08
2.80388e-08
2.79084e-08
2.77022e-08
2.75855e-08
2.74936e-08
2.75822e-08
2.71779e-08
2.67401e-08
2.6722e-08
2.57114e-08
2.63232e-08
2.47881e-08
2.5067e-08
2.42182e-08
2.38833e-08
2.33722e-08
2.31359e-08
2.2823e-08
2.25012e-08
2.25828e-08
2.23841e-08
2.28164e-08
2.25086e-08
2.32912e-08
2.31234e-08
2.4139e-08
2.39863e-08
2.50664e-08
2.57026e-08
2.56429e-08
2.69596e-08
2.69831e-08
2.77749e-08
2.73445e-08
2.8567e-08
2.70636e-08
2.80005e-08
2.64688e-08
2.63084e-08
2.55166e-08
2.39443e-08
2.37935e-08
2.27172e-08
2.16459e-08
2.30205e-08
2.12952e-08
2.51174e-08
2.63436e-08
3.33099e-08
4.07336e-08
5.97941e-08
8.1928e-08
1.35698e-07
2.07772e-07
3.28454e-07
5.09184e-07
7.15368e-07
9.95275e-07
1.28372e-06
1.62637e-06
1.97888e-06
2.39348e-06
2.82606e-06
3.30949e-06
3.84121e-06
4.42465e-06
5.00809e-06
5.72863e-06
6.35665e-06
7.15979e-06
7.9039e-06
8.76064e-06
9.55351e-06
1.05049e-05
1.14285e-05
1.21671e-05
1.36756e-05
1.41971e-05
1.25809e-05
1.08506e-05
9.22016e-06
6.85457e-06
4.84166e-06
2.96572e-06
1.11042e-06
5.42954e-07
1.29599e-06
1.85681e-06
1.76327e-06
1.44396e-06
9.57704e-07
6.561e-07
9.70712e-07
1.53535e-06
1.86487e-06
1.72732e-06
7.94579e-07
1.44541e-07
3.09468e-08
6.61458e-08
8.8598e-09
7.97554e-08
2.2062e-07
3.46599e-07
2.62983e-07
2.10515e-07
1.40349e-07
1.39889e-07
6.52926e-08
6.14886e-08
5.66239e-08
5.49242e-08
7.16321e-08
7.07586e-08
6.47231e-08
6.2374e-08
5.2246e-08
5.38198e-08
4.9609e-08
4.83827e-08
4.61999e-08
4.34387e-08
3.90645e-08
3.76982e-08
3.82582e-08
4.10833e-08
4.32672e-08
4.47869e-08
4.63112e-08
4.86512e-08
4.37076e-08
4.2111e-08
5.3184e-08
7.26503e-08
1.00648e-07
1.16758e-07
1.60576e-07
2.23731e-07
2.76832e-07
3.78021e-07
3.61557e-07
1.40508e-06
2.8024e-06
3.2659e-06
2.52725e-06
3.42154e-07
2.28654e-12
9.32377e-08
6.8997e-08
5.83665e-08
6.66393e-08
8.98461e-08
2.31595e-07
4.88235e-07
2.24276e-06
5.20948e-06
6.59512e-06
6.96349e-06
8.46826e-06
1.05246e-05
1.25035e-05
1.32511e-05
1.29868e-05
1.19605e-05
1.04135e-05
9.35838e-06
8.29317e-06
6.70876e-06
5.66209e-06
4.76918e-06
3.74531e-06
3.12686e-06
2.47708e-06
1.86599e-06
1.49013e-06
1.05292e-06
7.36939e-07
4.80814e-07
3.0325e-07
1.89777e-07
1.04527e-07
7.6277e-08
5.2154e-08
4.20707e-08
3.33299e-08
2.81294e-08
2.85501e-08
2.43919e-08
2.43263e-08
2.55695e-08
2.23877e-08
2.61715e-08
2.24189e-08
2.606e-08
2.28784e-08
2.56826e-08
2.3433e-08
2.50181e-08
2.39377e-08
2.44092e-08
2.40243e-08
2.41857e-08
2.39346e-08
2.40105e-08
2.38937e-08
2.39823e-08
2.40129e-08
2.41263e-08
2.41908e-08
2.44031e-08
2.46316e-08
2.46502e-08
2.50602e-08
2.52462e-08
2.52964e-08
2.5668e-08
2.57512e-08
2.58507e-08
2.60619e-08
2.62423e-08
2.6372e-08
2.64457e-08
2.6471e-08
2.65742e-08
2.65352e-08
2.6658e-08
2.66742e-08
2.66335e-08
2.66383e-08
2.62775e-08
2.65849e-08
2.61361e-08
2.63951e-08
2.61962e-08
2.63946e-08
2.63827e-08
2.64807e-08
2.65875e-08
2.66285e-08
2.66612e-08
2.66189e-08
2.67108e-08
2.68146e-08
2.68005e-08
2.64397e-08
2.67412e-08
2.65596e-08
2.63525e-08
2.65118e-08
2.63259e-08
2.65673e-08
2.65188e-08
2.69708e-08
2.74177e-08
2.75773e-08
2.74441e-08
2.76399e-08
2.73973e-08
2.71915e-08
2.70754e-08
2.70655e-08
2.68905e-08
2.6912e-08
2.68662e-08
2.66906e-08
2.68605e-08
2.64741e-08
2.67847e-08
2.6528e-08
2.66364e-08
2.66961e-08
2.67295e-08
2.6774e-08
2.67895e-08
2.67997e-08
2.67043e-08
2.66943e-08
2.6597e-08
2.65619e-08
2.63592e-08
2.62839e-08
2.5981e-08
2.59648e-08
2.56135e-08
2.54576e-08
2.53254e-08
2.50656e-08
2.47657e-08
2.46946e-08
2.44193e-08
2.43616e-08
2.41632e-08
2.41454e-08
2.3931e-08
2.3988e-08
2.38866e-08
2.39059e-08
2.39614e-08
2.39182e-08
2.39324e-08
2.41339e-08
2.39223e-08
2.40379e-08
2.40958e-08
2.38663e-08
2.38166e-08
2.448e-08
2.31965e-08
2.52691e-08
2.42687e-08
2.67896e-08
2.74663e-08
3.32846e-08
3.66714e-08
4.93241e-08
7.0455e-08
9.62857e-08
1.67616e-07
2.69685e-07
4.37025e-07
7.02317e-07
1.05982e-06
1.41074e-06
1.98912e-06
2.4815e-06
3.20875e-06
4.01636e-06
5.00904e-06
6.05651e-06
7.3648e-06
8.86904e-06
1.01173e-05
1.21299e-05
1.38507e-05
1.3394e-05
1.22047e-05
1.09392e-05
8.28877e-06
5.27642e-06
2.5399e-06
5.98298e-07
1.32634e-07
3.57199e-07
8.71927e-07
8.86772e-07
6.05521e-07
3.11026e-07
2.45196e-07
4.59021e-07
7.34725e-07
8.14462e-07
5.55247e-07
1.05139e-07
5.00945e-08
3.04008e-08
4.1399e-08
3.06526e-08
9.23427e-08
1.29102e-07
9.96585e-08
9.77048e-08
8.22391e-08
6.83004e-08
7.26583e-08
5.87728e-08
6.12688e-08
5.7329e-08
6.04226e-08
6.79283e-08
7.12422e-08
6.47184e-08
5.79753e-08
5.09953e-08
4.96136e-08
4.7064e-08
4.84025e-08
4.69654e-08
4.119e-08
3.94703e-08
3.81992e-08
3.76251e-08
3.9204e-08
4.06797e-08
4.24812e-08
4.41637e-08
4.59651e-08
4.4377e-08
4.23399e-08
4.73526e-08
5.56481e-08
6.11179e-08
6.07605e-08
6.46103e-08
9.13207e-08
8.59301e-08
1.82108e-07
1.2389e-07
5.86684e-07
1.87564e-06
2.63432e-06
2.17752e-06
2.35645e-07
2.23518e-10
1.01932e-07
5.86356e-08
5.89891e-08
6.50525e-08
7.3595e-08
1.68034e-07
5.67015e-07
2.15133e-06
5.10934e-06
6.94199e-06
7.52156e-06
8.96922e-06
1.08173e-05
1.25175e-05
1.281e-05
1.17695e-05
9.92534e-06
7.93899e-06
6.46336e-06
4.8734e-06
3.16616e-06
2.30149e-06
1.72862e-06
1.0035e-06
6.97588e-07
3.69737e-07
1.55182e-07
1.52405e-07
6.21035e-08
4.81333e-08
4.30907e-08
3.08949e-08
3.04982e-08
2.59652e-08
2.61364e-08
2.45378e-08
2.52631e-08
2.45891e-08
2.35582e-08
2.55877e-08
2.36526e-08
2.45106e-08
2.49701e-08
2.35586e-08
2.54732e-08
2.34787e-08
2.52609e-08
2.38023e-08
2.49686e-08
2.41594e-08
2.47664e-08
2.44337e-08
2.46359e-08
2.45792e-08
2.46763e-08
2.46582e-08
2.47194e-08
2.47689e-08
2.48148e-08
2.48317e-08
2.4919e-08
2.49279e-08
2.49215e-08
2.49684e-08
2.49429e-08
2.49632e-08
2.49847e-08
2.51041e-08
2.51145e-08
2.51984e-08
2.52017e-08
2.52095e-08
2.51763e-08
2.5277e-08
2.53555e-08
2.5444e-08
2.54654e-08
2.55717e-08
2.5766e-08
2.59207e-08
2.59957e-08
2.59891e-08
2.61652e-08
2.61307e-08
2.63589e-08
2.62734e-08
2.64003e-08
2.65213e-08
2.66839e-08
2.66257e-08
2.66308e-08
2.68451e-08
2.69411e-08
2.7001e-08
2.6913e-08
2.70363e-08
2.70429e-08
2.65777e-08
2.64646e-08
2.66457e-08
2.63021e-08
2.61555e-08
2.62547e-08
2.63285e-08
2.65156e-08
2.70487e-08
2.7491e-08
2.76002e-08
2.76979e-08
2.78101e-08
2.75013e-08
2.7515e-08
2.75381e-08
2.74273e-08
2.72943e-08
2.72512e-08
2.69932e-08
2.69544e-08
2.67676e-08
2.67853e-08
2.64678e-08
2.64672e-08
2.63853e-08
2.62612e-08
2.61058e-08
2.59793e-08
2.58434e-08
2.57648e-08
2.56508e-08
2.55841e-08
2.55074e-08
2.53795e-08
2.52646e-08
2.51814e-08
2.51178e-08
2.50564e-08
2.50389e-08
2.50884e-08
2.50439e-08
2.50421e-08
2.49778e-08
2.49848e-08
2.49196e-08
2.49322e-08
2.48759e-08
2.48552e-08
2.4823e-08
2.47501e-08
2.46751e-08
2.46588e-08
2.45258e-08
2.44397e-08
2.44935e-08
2.42827e-08
2.45361e-08
2.40358e-08
2.47189e-08
2.38668e-08
2.46051e-08
2.42079e-08
2.40329e-08
2.47329e-08
2.35902e-08
2.51233e-08
2.31726e-08
2.58558e-08
2.31301e-08
2.5769e-08
2.55124e-08
2.65587e-08
2.74876e-08
3.54481e-08
3.56339e-08
4.80941e-08
8.56988e-08
9.68036e-08
2.38334e-07
3.94677e-07
7.19276e-07
1.15566e-06
1.8929e-06
2.65153e-06
3.71152e-06
5.41994e-06
7.10962e-06
9.58865e-06
1.2405e-05
1.3262e-05
1.2932e-05
1.23425e-05
9.71371e-06
5.71591e-06
2.34735e-06
4.76284e-07
9.98375e-08
1.26949e-07
2.92068e-07
3.0803e-07
2.01942e-07
1.33313e-07
1.48118e-07
2.5857e-07
3.46694e-07
2.82326e-07
1.33594e-07
6.3895e-08
7.52051e-08
5.63683e-08
4.94981e-08
4.88931e-08
9.14913e-08
9.57109e-08
5.85788e-08
7.58377e-08
5.97792e-08
5.87792e-08
5.6263e-08
5.88529e-08
5.98851e-08
5.50309e-08
6.01694e-08
6.28921e-08
6.91616e-08
6.24876e-08
5.27686e-08
5.17101e-08
4.93946e-08
4.65876e-08
4.73387e-08
4.4952e-08
4.01718e-08
3.93671e-08
3.88491e-08
3.85094e-08
3.88689e-08
3.88949e-08
4.07139e-08
4.14336e-08
4.33592e-08
4.40487e-08
4.31134e-08
4.59061e-08
4.97703e-08
5.01418e-08
5.02874e-08
4.68448e-08
6.23752e-08
4.8165e-08
1.09061e-07
7.54495e-08
1.91026e-07
1.03166e-06
1.894e-06
1.74509e-06
2.15451e-07
7.79779e-09
9.24507e-08
5.94487e-08
8.16112e-08
1.19762e-07
1.37844e-07
1.75634e-07
6.21383e-07
2.24616e-06
5.01636e-06
7.04808e-06
7.74186e-06
8.93338e-06
1.05189e-05
1.19213e-05
1.16898e-05
9.81261e-06
7.29528e-06
5.08578e-06
3.42932e-06
1.82008e-06
6.60886e-07
5.33332e-07
3.45726e-07
7.41438e-08
6.88105e-08
5.48657e-08
2.19872e-08
4.62543e-08
2.09417e-08
2.56935e-08
2.9246e-08
2.06668e-08
2.83158e-08
2.22251e-08
2.5512e-08
2.40996e-08
2.40276e-08
2.52086e-08
2.33228e-08
2.53323e-08
2.385e-08
2.45733e-08
2.46463e-08
2.41262e-08
2.49099e-08
2.41873e-08
2.48283e-08
2.43766e-08
2.47877e-08
2.45893e-08
2.47437e-08
2.47582e-08
2.47933e-08
2.48204e-08
2.4869e-08
2.4893e-08
2.48664e-08
2.49365e-08
2.4952e-08
2.50017e-08
2.49935e-08
2.50273e-08
2.50823e-08
2.51043e-08
2.51835e-08
2.52508e-08
2.526e-08
2.53475e-08
2.53949e-08
2.55244e-08
2.56022e-08
2.57004e-08
2.57019e-08
2.58307e-08
2.58437e-08
2.58999e-08
2.58487e-08
2.592e-08
2.6012e-08
2.61247e-08
2.61794e-08
2.62505e-08
2.6308e-08
2.6369e-08
2.63536e-08
2.64222e-08
2.63384e-08
2.64511e-08
2.65724e-08
2.65275e-08
2.64993e-08
2.66552e-08
2.68966e-08
2.69768e-08
2.68755e-08
2.67358e-08
2.68868e-08
2.67236e-08
2.63217e-08
2.66153e-08
2.6257e-08
2.63236e-08
2.61988e-08
2.61091e-08
2.63791e-08
2.6663e-08
2.71259e-08
2.7355e-08
2.78455e-08
2.77686e-08
2.73259e-08
2.73409e-08
2.73267e-08
2.72507e-08
2.70623e-08
2.69433e-08
2.68745e-08
2.67764e-08
2.68264e-08
2.6773e-08
2.67674e-08
2.66306e-08
2.65795e-08
2.64489e-08
2.63268e-08
2.62351e-08
2.61704e-08
2.60749e-08
2.6051e-08
2.59638e-08
2.59557e-08
2.58959e-08
2.58726e-08
2.58132e-08
2.58062e-08
2.57458e-08
2.56981e-08
2.56049e-08
2.55484e-08
2.54486e-08
2.53665e-08
2.52765e-08
2.52094e-08
2.50981e-08
2.50427e-08
2.49899e-08
2.49145e-08
2.48649e-08
2.48036e-08
2.48047e-08
2.47253e-08
2.4706e-08
2.46818e-08
2.46069e-08
2.46872e-08
2.45053e-08
2.47656e-08
2.43853e-08
2.47515e-08
2.45003e-08
2.44257e-08
2.48456e-08
2.3939e-08
2.51683e-08
2.35051e-08
2.55861e-08
2.31372e-08
2.57111e-08
2.30047e-08
2.64526e-08
2.17821e-08
2.8027e-08
2.39895e-08
2.37399e-08
3.36797e-08
2.53161e-08
4.08088e-08
4.28675e-08
9.57609e-08
1.06741e-07
2.83301e-07
7.8352e-07
1.20318e-06
2.27314e-06
3.74804e-06
6.35099e-06
1.00188e-05
1.21761e-05
1.29233e-05
1.3301e-05
1.1023e-05
6.39095e-06
2.54041e-06
5.65759e-07
1.09988e-07
8.50419e-08
1.18354e-07
1.20392e-07
1.00252e-07
9.14097e-08
1.08207e-07
1.62973e-07
1.8675e-07
1.3929e-07
8.50389e-08
7.19342e-08
6.56816e-08
5.23462e-08
5.40329e-08
6.07278e-08
8.66125e-08
7.66878e-08
5.52283e-08
7.05749e-08
5.28944e-08
5.42463e-08
4.99078e-08
5.50792e-08
5.64351e-08
5.05352e-08
5.49221e-08
5.41042e-08
6.38342e-08
5.92779e-08
5.13104e-08
4.99295e-08
4.68096e-08
4.48023e-08
4.41163e-08
4.32587e-08
4.0131e-08
3.85404e-08
3.9066e-08
3.87954e-08
3.86018e-08
3.80525e-08
3.84457e-08
4.04453e-08
4.12601e-08
4.2022e-08
4.11601e-08
4.39793e-08
4.83188e-08
4.9131e-08
4.78187e-08
4.22416e-08
5.04219e-08
4.09347e-08
7.96893e-08
6.49443e-08
7.99109e-08
4.48846e-07
1.19815e-06
1.2838e-06
1.90194e-07
2.56254e-08
8.62401e-08
6.88736e-08
8.52104e-08
1.02831e-07
1.2762e-07
1.88252e-07
5.72956e-07
2.17535e-06
4.76724e-06
6.82753e-06
7.52414e-06
8.37168e-06
9.69404e-06
1.08116e-05
1.00773e-05
7.50343e-06
4.58726e-06
2.47761e-06
1.10103e-06
1.50283e-07
6.89988e-08
1.30169e-07
5.46555e-08
2.01612e-08
3.10792e-08
3.40189e-08
1.57742e-08
3.92779e-08
1.74885e-08
2.70684e-08
2.76052e-08
1.93183e-08
3.17444e-08
1.93891e-08
2.8841e-08
2.23465e-08
2.56868e-08
2.44045e-08
2.44825e-08
2.48629e-08
2.44869e-08
2.46422e-08
2.47955e-08
2.44164e-08
2.48286e-08
2.45056e-08
2.47382e-08
2.45787e-08
2.47096e-08
2.46637e-08
2.47633e-08
2.47802e-08
2.48442e-08
2.48927e-08
2.49036e-08
2.49138e-08
2.49648e-08
2.49665e-08
2.50159e-08
2.5029e-08
2.50671e-08
2.50955e-08
2.51805e-08
2.52357e-08
2.52339e-08
2.53023e-08
2.52467e-08
2.53838e-08
2.53725e-08
2.54995e-08
2.55322e-08
2.56479e-08
2.56283e-08
2.5718e-08
2.57374e-08
2.58004e-08
2.5757e-08
2.57877e-08
2.58917e-08
2.60197e-08
2.60966e-08
2.62562e-08
2.63303e-08
2.62924e-08
2.63319e-08
2.6388e-08
2.64089e-08
2.65051e-08
2.66008e-08
2.65772e-08
2.66058e-08
2.66601e-08
2.67964e-08
2.69413e-08
2.68119e-08
2.6663e-08
2.67445e-08
2.67746e-08
2.64035e-08
2.63777e-08
2.60728e-08
2.63187e-08
2.61258e-08
2.60068e-08
2.64115e-08
2.67287e-08
2.71033e-08
2.74279e-08
2.7659e-08
2.76862e-08
2.74252e-08
2.75814e-08
2.75081e-08
2.73897e-08
2.72241e-08
2.71264e-08
2.70335e-08
2.69922e-08
2.69343e-08
2.67503e-08
2.65397e-08
2.648e-08
2.63658e-08
2.62962e-08
2.62617e-08
2.62798e-08
2.62374e-08
2.61529e-08
2.60804e-08
2.59902e-08
2.58967e-08
2.58419e-08
2.57995e-08
2.57202e-08
2.56778e-08
2.55882e-08
2.55622e-08
2.54254e-08
2.54142e-08
2.53187e-08
2.52453e-08
2.52281e-08
2.51528e-08
2.50793e-08
2.50343e-08
2.5004e-08
2.4956e-08
2.49737e-08
2.49137e-08
2.48952e-08
2.48927e-08
2.48832e-08
2.48052e-08
2.48001e-08
2.4774e-08
2.47136e-08
2.47475e-08
2.46121e-08
2.46807e-08
2.46578e-08
2.4442e-08
2.48837e-08
2.40473e-08
2.53047e-08
2.3486e-08
2.59331e-08
2.28536e-08
2.65245e-08
2.22641e-08
2.71466e-08
2.17533e-08
2.66848e-08
2.42508e-08
2.23694e-08
2.8667e-08
2.17286e-08
2.90111e-08
2.23894e-08
3.5418e-08
4.06385e-08
2.86685e-08
1.06966e-07
3.07862e-07
5.44104e-07
1.02109e-06
3.11637e-06
7.10884e-06
1.03323e-05
1.22057e-05
1.3716e-05
1.2054e-05
7.1803e-06
2.92447e-06
7.30541e-07
1.31685e-07
7.68361e-08
8.19091e-08
8.05619e-08
7.7941e-08
8.05112e-08
9.21826e-08
1.22456e-07
1.3342e-07
1.0091e-07
7.50589e-08
6.8583e-08
6.50991e-08
6.01053e-08
6.00994e-08
6.54383e-08
7.67974e-08
6.65086e-08
5.8301e-08
6.52967e-08
5.37011e-08
5.39493e-08
4.97036e-08
5.4492e-08
5.74077e-08
4.89083e-08
5.04808e-08
5.01369e-08
6.03692e-08
5.59545e-08
5.23866e-08
4.7546e-08
4.49686e-08
4.4533e-08
4.45211e-08
4.32786e-08
3.87665e-08
3.79502e-08
3.87737e-08
3.94158e-08
3.86899e-08
3.83085e-08
3.83657e-08
3.87338e-08
3.91417e-08
4.0503e-08
4.04421e-08
4.3059e-08
4.66981e-08
4.88575e-08
4.55101e-08
4.19407e-08
4.44711e-08
4.02525e-08
6.16661e-08
6.09387e-08
5.37816e-08
1.88634e-07
6.66326e-07
8.64993e-07
1.72274e-07
4.80244e-08
8.6554e-08
8.89471e-08
1.14215e-07
1.30108e-07
1.34995e-07
2.01177e-07
6.18173e-07
2.11302e-06
4.42169e-06
6.27866e-06
6.85291e-06
7.3684e-06
8.45642e-06
9.29073e-06
8.13643e-06
5.16716e-06
2.23177e-06
4.48289e-07
6.35201e-08
3.042e-08
5.63576e-08
3.59538e-08
2.51428e-08
2.57454e-08
2.31952e-08
2.95913e-08
1.92011e-08
3.3044e-08
1.84863e-08
2.89762e-08
2.48142e-08
2.09096e-08
3.14414e-08
1.8589e-08
3.08302e-08
2.06409e-08
2.75646e-08
2.31315e-08
2.55294e-08
2.42719e-08
2.49765e-08
2.45398e-08
2.48572e-08
2.4667e-08
2.47914e-08
2.47491e-08
2.4808e-08
2.47991e-08
2.47941e-08
2.48309e-08
2.48442e-08
2.48781e-08
2.48946e-08
2.49578e-08
2.49647e-08
2.49685e-08
2.502e-08
2.50849e-08
2.50436e-08
2.5209e-08
2.52002e-08
2.52038e-08
2.53196e-08
2.52953e-08
2.53299e-08
2.54159e-08
2.53508e-08
2.54378e-08
2.54186e-08
2.55437e-08
2.56112e-08
2.56985e-08
2.56951e-08
2.58074e-08
2.59359e-08
2.6048e-08
2.59855e-08
2.59652e-08
2.60021e-08
2.6047e-08
2.60681e-08
2.62524e-08
2.63264e-08
2.62845e-08
2.62929e-08
2.63742e-08
2.64041e-08
2.65015e-08
2.65731e-08
2.6611e-08
2.65728e-08
2.66221e-08
2.66941e-08
2.68988e-08
2.68801e-08
2.67932e-08
2.66046e-08
2.66202e-08
2.61897e-08
2.61836e-08
2.59854e-08
2.60627e-08
2.60686e-08
2.59369e-08
2.62882e-08
2.65177e-08
2.68244e-08
2.72098e-08
2.72952e-08
2.75942e-08
2.7626e-08
2.76155e-08
2.7496e-08
2.71522e-08
2.70159e-08
2.70245e-08
2.70521e-08
2.69901e-08
2.68178e-08
2.66385e-08
2.65251e-08
2.64458e-08