/*--------------------------------*- C++ -*----------------------------------*\
| =========                 |                                                 |
| \\      /  F ield         | OpenFOAM: The Open Source CFD Toolbox           |
|  \\    /   O peration     | Version:  v2006                                 |
|   \\  /    A nd           | Website:  www.openfoam.com                      |
|    \\/     M anipulation  |                                                 |
\*---------------------------------------------------------------------------*/
FoamFile
{
    version     2.0;
    format      ascii;
    class       volScalarField;
    location    "160";
    object      ducSensor;
}
// * * * * * * * * * * * * * * * * * * * * * * * * * * * * * * * * * * * * * //

dimensions      [0 0 0 0 0 0 0];


internalField   nonuniform List<scalar> 
65536
(
0
0.00199748
0.000294116
0.000378756
0
0
0.00471453
0.00557255
0
0
0
0
0
0
0.00297782
0.0217115
0.0345973
0
0.175417
0.0367851
0.00305192
0
0
0.0341865
0.0514843
0.124272
0.0919455
0.116626
0.14522
0
0
0
0
0
0
0
0
0.0749082
0.0380349
0.0176985
0
0.00457705
0.00119555
0.00278052
0.00481878
0
0
0.00250914
0
0.00379226
0
0.00159841
0
0.00409402
0
0.000895081
0
0
0.00114672
0.00189519
0
0.000360163
0.00125138
0
0
0.00145581
0
0.000603623
0
4.61181e-05
0
0.000892099
0
0.000393752
0
0
0.000310811
0
0.000159615
0
4.76141e-05
3.77825e-05
4.62764e-06
0
0
6.95339e-05
0
0.000227784
0
3.33938e-05
0
5.81416e-06
0
3.33242e-05
7.01863e-05
0
3.8263e-05
7.97885e-06
4.43386e-05
0
5.52752e-05
0.000143486
0
3.71974e-05
7.53075e-05
4.04851e-05
5.41745e-05
0.000116996
8.25364e-05
3.2509e-05
0.000266665
0.000116087
0.000253134
0.000274579
0.000316488
0.000311056
0.000433479
0.000362452
0.000194523
0.000311793
0.000404389
0.000559636
0.000780234
0.00127686
0.00153823
0.00224685
0.00716815
0.00497092
0.00263552
0.00190256
0
0.00108879
0.000673961
0
0.000601443
0.000761188
0
0.000478891
0.000390682
0.000147639
0.000206585
0.00026099
0.000172027
5.74483e-05
0.000173877
0.000168254
2.87536e-05
4.19023e-05
0.00017211
1.28906e-05
6.6757e-05
0
7.02779e-05
0
2.00111e-05
3.16568e-06
0
4.19299e-05
0
1.46273e-05
0
0
2.93672e-05
0
2.91119e-05
0
0
0
2.08923e-05
0
0.000173395
5.70665e-06
0
0
0
0
0
0.000302967
0
0.000523967
0
0.000192835
0
0
0
0.000622932
0
0.00122281
0
0.000559522
0
0.00141712
0
0.00264494
0
0
6.66215e-05
0.00350915
7.58399e-05
0.00143528
0
0
0
0.00212403
0.00154852
0.00445866
0
0
0
0.00343746
0.00325946
0
0.00273511
0.00103956
0.000985764
0.00245234
0
0.434772
0
0.0151753
0
0
0.0286221
0.0370997
0.0191459
0
0
0
0
0
0.0390957
0.05231
0
0
0.0572685
0.0183148
0
0.00311436
0
0.364664
0.0501796
0
0
0.00580435
0
0.0104798
0
0
0
0.00500703
0
0.00289146
0
0.000757625
0
0
0.0155498
0
0
0
0.0205048
0
0
0.0100952
0.0261628
0
0.0488395
0.0498742
0.298667
0
0
0
0
0.0756464
0
0
0
0.535105
0.236954
0
0
0
0
0
0
0.722521
0.363555
0.166491
0.337392
0.6684
0.675529
0.761751
0
0
0
0
0
0
0.000259525
0.00163455
0.0230168
0
0.0271691
0
0.00527538
0
0.0272891
0
0.0332696
0
0.0218575
0
0.021444
0.00925329
0
0
0.0184766
0
0
0.0124317
0.00377491
0
0.0141939
0
0.00516327
0
0.00419884
0
0.0076569
0
0.000569981
0.00212696
0
0.00313005
0
0
9.3395e-06
0.002721
0
0
0
0
0.00306308
0
0.00139718
0
0
0
0
0.000292267
0.000878638
0
0
0.000904894
0
0
0.000431984
0.00240363
0
0.00119455
0.00239587
0.00135306
0.00155026
0.00266289
0.00115649
0.000808174
0.00620097
0.00375016
0.00761019
0.00750598
0.00939754
0.00757005
0.0142326
0.0111879
0.00561194
0.0180814
0.0138543
0.0117799
0.0143983
0.0418936
0.0432961
0.0350439
0.0311845
0.0218649
0.0181959
0.03119
0.000358684
0.0315157
0.027209
0.00296219
0.00937172
0.0223787
0.00973364
0.0322203
0.0186349
0.0155837
0.00691778
0.00721997
0.00596113
0.00272747
0.00260286
0.00440834
0.000934503
0.000361433
0.00394243
0.00102022
0.000711766
2.85979e-05
0.00052254
0.000678185
0.000437434
5.96032e-05
0
0.00155799
0
0
0
6.51623e-05
0
8.96132e-05
0.000397544
1.81782e-05
0
0.000622089
0
0.000237056
0.00012124
0.000472725
0
0
0
0
0.00119684
0
0.00372598
0
0.00531751
0
0.00163372
0.000159381
0.000817071
0
0.0111772
0
0.00842736
0
0.00901952
0
0.0228492
0
0.0213879
0.00174911
0
0
0.0223528
0
0.0140801
0
0.00581026
0
0
0
0.0364893
0.00474232
0
0
0.0171182
0.0119269
0
0
0.0094099
0
0.012265
0
0.00181947
0.00258127
0.234508
0.546352
0.0369488
0
0
0.569926
0.743394
0.0408209
0.372788
0.566062
0
0
0.0334692
0.274388
0
0
0.86767
0.209552
0
0
0
0.0714836
0
0
0.111159
0
0.0595312
0.00627519
0.106911
0
0.069266
0
0.0291391
0
0
0
0.046956
0
0.0294838
0
0.013119
0
0.0202523
0.00922809
0.0263358
0
0.0623294
0.0605363
0.225204
0.101211
0
0
0
0.0433634
0
0
0.172345
0.488885
0.16929
0
0.0255463
0
0
0
0
0.703901
0.47282
0.312566
0.591984
0.914541
0.64324
0.354474
0.0872945
0
0.000757641
0
0.0144701
0
0
0
0
0.0377678
0
0.00826734
0.0375603
0
0.0282285
0.000681222
0.00416023
0
0.0158687
0.00273002
0.000235516
0.00228204
0.00672243
0
0.0144984
0.00864591
0
0.0069508
0
0
0.0157376
0
0.00851274
0
0.00188902
0.00428223
0
0
0
0.000332369
0.0018735
0
0.0018044
0
0.00203329
0.00317794
0
8.1321e-05
0
0
0.00813988
0
0.00620756
0
0.000897562
0
0
0
0.00319443
0
0
0.00149687
0
0.0011972
0.00609952
0.0175082
0.00484442
0.00948576
0.0192507
0.00663142
0.0253748
0.0341571
0.0337546
0.0194688
0.0381587
0.0181078
0.0156448
0.0210247
0.0245789
0.0590963
0.0410567
0.0199023
0.0354624
0.0434338
0.0151664
0.0148511
0.013954
0.0239351
0.0560933
0.0288048
0.0409734
0.0244014
0.035403
0.0435407
0.00212028
0.0638087
0.0672736
0
0.0348781
0.0600441
0.00196931
0.0207269
0.00806955
0.00806951
0.0198236
0.0483879
0.0199465
0.0142298
0.0105082
0.00721494
0.00916283
0.00306367
0.0200447
0
0.0185255
0
0.0231156
0
0.0222633
0
0
0.00336731
0
0
0
0
0
0
0.00276035
0
0
0
0.00124074
0
0.0027751
0
7.15202e-05
0
0
0
0.00150656
0
0.00443892
0.0043072
0
0.00214946
0
0
0.00889571
0
0.00231455
0
0.00764907
0
0.0104342
0
0.0169813
0
0.0175231
0
0.0267097
0
0.0290073
0
0.0198585
0
0.0263734
0
0
0
0
0.0533043
0.0394143
0.0061982
0
0
0.0108243
0.00582651
0
0.00659111
0.00976042
0
0.00109528
0
0
0.239715
0
0
0
0.830395
0.737747
0.259454
0.686644
0.619399
0.21003
0
0.0461355
0
0
0
0.392041
0
0.106304
0.0489372
0
0.0420618
0.0186741
0.220853
0
0
0.132246
0
0.452168
0
0
0
0
0
0.070718
0
0
0.109591
0
0.0704161
0
0
0
0.0221071
0
0.0444941
0
0
0
0
0.254142
0.04454
0.405654
0
0.0673163
0.143059
0.0816171
0
0.18828
0.308447
0
0.392069
0.0579929
0.0281289
0.7524
0
0
0
0
0
0
0
0.00514395
0
0.0279561
0
0.0186694
0
0
0
0
0.0524647
0
0.0162103
0.00634536
0.0071811
0
0.0453211
0
0.0105359
0
0.0606093
0
0.00773229
0
0
0
0
0
0.0198845
0.0259936
0
0
0.0364637
0
0.00656895
0.00655506
0
0.0231403
0
0.00529847
0.00791212
0
0.0255147
0
0.0124768
0
0.0286408
0
0.032363
0
0.0660192
0
0.0292337
0
0
0.0198253
0
0.0806387
0
0.0281545
0.000579757
0
0.0105077
0
0.00774059
0.007796
0.00539831
0.0102688
0.0220752
0.0168523
0.0116947
0.0144051
0.018019
0.00660481
0.0153136
0.0554802
0.0287154
0.0373889
0.0297157
0.0377045
0.030196
0.0407557
0.011461
0.0120589
0.0339251
0.0260376
0.0182322
0.018458
0.0253129
0.0642381
0.0555414
0.0320046
0.0263391
0.0502672
0.037498
0.0197509
0.0700584
0.0357551
0
0.0592306
0.0214249
0.00619177
0.0277634
0.00839205
0.0419372
0.0388417
0.00911576
0.0145632
0.0123706
0.00506637
0.0234335
0.039485
0.000750812
0.0283363
0.011156
0.00438112
2.15524e-05
0.00333652
0.00579566
0.000864004
0.0105399
0
0.0218394
0.00748526
0
0
0
0
0
0.00148467
0.0103992
0
0.0264265
0
0.0293814
0
0
0
0
0
0.0205323
0
0.00133221
0.00530329
0
0.0471798
0
0
0.0416766
0
0
0.0269303
0
0
0.0067231
0
0.0273722
0
0
0.0357944
0.0608033
0
0
0
0.029972
0.0364855
0.0265433
0.0124499
0
0
0
0
0.0415427
0.040731
0.028987
0
0
0.0178722
0.00444975
0
0.0100947
0
0
0.00480277
0
0
0
0
0
0.550937
0
0
0.206441
0
0.0586837
0
0.165888
0.00854012
0
0.125177
0
0
0
0.529098
0.0749371
0
0
0.308316
0.66468
0
0.429018
0
0
0
0.112879
0.0258581
0
0.325897
0
0
0.105649
0
0.110967
0
0
0
0
0.00316503
0
0
0.024461
0
0.0277424
0
0
0.0539843
0.0204005
0.324187
0.0862877
0.126742
0
0
0.055995
0.39162
0.210863
0
0.343158
0
0
0.706181
0
0.479942
0
0
0
0
0
0
0.00130944
0.00429328
0.00877045
0.00267514
0
0.0275937
0
0.0126614
0.0207286
0.0177896
0
0.0106973
0.00705045
0.0195163
0.012321
0.11275
0
0
0
0.0167229
0.0295445
0
0
0.140509
0
0
0.169371
0.165553
0
0.0446511
0.0554196
0.109097
0
0.193482
0
0.190821
0
0
0.120563
0
0.103249
0
0.0169065
0
0.0370305
0
0.0619601
0.0394142
0.0424271
0
0
0
0
0.0236341
0
0.0261546
0.00337231
0
0.0290886
0
0
0
0.00747462
0.00672834
0.0115631
0.0142812
0.0134946
0.0187938
0.0161432
0.0408903
0.0267646
0.0268066
0.0346808
0.0451147
0.0303276
0.0260179
0.0125452
0.0135183
0.0315493
0.0561991
0.0233204
0.0208385
0.0123459
0.0250552
0.0413145
0.014777
0.0121223
0.0433456
0.0609397
0.0476489
0.0572167
0.0493299
0.0418444
0.0524049
0.0353646
0.0307018
0.0272922
0.0307037
0.0162562
0.0173517
0.01569
0.0311826
0.0255904
0.0151934
0.0137504
0.00918079
0.0280796
0.0315479
0.0167612
0.0173602
0.00643159
0.0135119
0.00336369
0.00867223
0
0.0231064
0.00307679
0.0144311
0
0
0.00288078
0
0
0.000945135
0.00376114
0
0
0
0.0256693
0
0.0619443
0
0.0611893
0
0
0
0.00527748
0
0
0
0
0.071541
0
0.176342
0
0
0.153644
0
0
0.341725
0
0.218379
0.0489196
0
0
0.127359
0
0.211749
0.240972
0
0
0
0.0946166
0.0129849
0.110209
0
0
0.0119201
0.0153079
0.105905
0
0
0
0.0406074
0.0518618
0
0
0.00218319
0
0
0.0101914
0
0
0
0
0.0444329
0
0.121803
0
0
0.0156016
0
0.45001
0
0.0129798
0.0261198
0.137145
0
0
0
0.213857
0
0
0.0539587
0.0569572
0.33975
0
0.344229
0.405982
0
0.0839773
0
0
0.194975
0
0.0411263
0.0625415
0
0.105403
0.226812
0
0.0554906
0
0.0295966
0.0331583
0
0.0088031
0.0302716
0
0
0
0
0.151773
0
0.0408385
0
0
0.0138396
0
0.137173
0
0
0
0.533901
0
0.7656
0.523717
0.00833698
0.110841
0
0.713825
0.676214
0.317267
0.338085
0
0
0
0
0.0330599
0
0.0148598
0.028495
0
0.0402616
0
0
0
0.0114531
0.117475
0
0.0978775
0
0.389264
0.0276411
0
0
0
0.237696
0.132502
0
0.317292
0.572837
0
0
0.48041
0
0.295644
0
0.127814
0
0.222
0
0.116055
0.0309037
0
0.138264
0
0.0841476
0
0
0
0.0403586
0
0.0483493
0.00819461
0
0.00777093
0
0
0
0.0673776
0.0127576
0.0459778
0.0100111
0
0.00349889
0.0182381
0
0.0147535
0.00125819
0
0.0131297
0.0349977
0.0306541
0.0335928
0.0395994
0.0385863
0.00602642
0.0254354
0.0433792
0.0283672
0.0526978
0.0414249
0.0225223
0.0153956
0.0382333
0.0219587
0.0129763
0.0184576
0.0147039
0.0524475
0.0294459
0.022944
0.0556986
0.0577972
0.0424541
0.0632347
0.0540278
0.029152
0.0465033
0.0569181
0.0253618
0.0014265
0.0654771
0.0224665
0.00716215
0.0404
0.0502398
0.0151109
0.0195318
0.0148041
0.0182823
0.0434714
0.0112028
0.00894703
0.0211605
0.00150069
0.0176652
0.0212518
0.0167673
0.00825151
0.00402226
0.01271
0
0.0110221
0
0.0155555
0.00343718
0.0261537
0
0
0
0
0
0
0.0299456
0
0.0341701
0
0
0
0
0
0.0350398
0.0019098
0.0321648
0.01749
0
0.142613
0
0.0333068
0.016661
0
0.0782589
0.0243081
0
0.239471
0
0.0213006
0
0.357241
0
0.474789
0
0
0.343921
0.243423
0.0520326
0
0
0
0.0716241
0.210886
0.102681
0.127763
0.0312458
0
0
0
0.0856336
0.0156564
0
0
0.0184976
0
0.00206423
0.00502765
0
0
0
0
0.36005
0.902033
0
0.734027
0.625409
0
0.625926
0
0.153875
0.0104265
0.00585078
0
0.148815
0.0570041
0.122308
0
0
0
0.0735254
0.243781
0
0
0.933866
0
0.594053
0
0
0.422289
0
0.356501
0
0
0
0
0.154129
0
0.146719
0
0.00818809
0
0.00971038
0.00119933
0.180197
0
0
0
0
0.148408
0
0.102255
0
0
0.022095
0.0296767
0.15688
0
0
0.163921
0.325384
0.0412748
0.836687
0.581135
0.102198
0
0
0.831493
0.574487
0.344248
0.0965103
0.0140381
0.0512905
0.0132381
0
0.00774424
0
0.00846074
0
0.00367629
0.0279961
0
0
0.0774484
0
0.537545
0
0.367426
0
0.941178
0.0314703
0.257966
0
0
0.338366
0.0337912
0
0.230145
0.544714
0
0.0349999
0.513009
0
0.553907
0
0.106071
0
0.145745
0
0.162942
0
0
0.0547156
0
0.0643628
0
0
0
0.00710684
0.0237789
0.0929557
0.0539101
0
0
0
0.00163373
0
0.0432188
0
0.0472962
0
0.00826771
0.00605914
0.000136174
0
0.00862922
0
0.0249948
0.020461
0.0226305
0.0180499
0.0223846
0.0562544
0.0444985
0.0361126
0.0543379
0.0350148
0.0181068
0.031494
0.011703
0.0158063
0.019238
0.017588
0.0622586
0.0263235
0.0234817
0.0258941
0.0411535
0.0283561
0.0235963
0.0434302
0.0572999
0.0274151
0.0777567
0.0754133
0.0208567
0.0732473
0.0661391
0.0143515
0.0142925
0.042573
0.0259588
0.00750757
0.0344133
0.0388849
0.00933854
0.02247
0.0365877
0.0315396
0.0177998
0.0110448
0.0161047
0.0163464
0.0237124
0.0283234
0.015025
0
0.00414702
0.00938893
0.00801838
0
0.0183197
0
0.0125663
0
0.0057514
0
0
0
0
0
0.00284106
0.0525197
0
0.059895
0
0
0
0
0.00321112
0.0160697
0.00588638
0
0.00628334
0
0.0254358
0.00370382
0.0662486
0.0169308
0.00152628
0
0.00398485
0
0.298368
0
0.0514952
0
0.632954
0
0.764273
0
0
0
0
0
0.339271
0.222818
0
0
0.795251
0.665264
0.838968
0
0
0
0.189542
0.0112676
0
0.0525288
0
0.0258201
0.0155774
0
0.00415377
0.00764104
0.0121897
0.00730419
0.0307744
0
0.772636
0
0.62665
0.403237
0
0.408658
0
0.277549
0.105569
0
0
0.335621
0.13894
0
0
0
0.0763958
0.0111926
0
0
0.872431
0
0.23292
0.0360845
0.0647537
0
0.707996
0
0.73647
0
0.0376595
0.190739
0
0
0
0
0.0928265
0
0
0.00462358
0
0
0.277843
0
0.0147467
0.0766356
0
0.052662
0
0
0.541691
0
0.0684278
0
0.285396
0.539576
0
0
0
0
0
0
0.75566
0.771929
0
0
0.0274141
0
0.0215596
0.0153268
0.0115531
0
0
0.00989847
0
0
0.0211379
0
0
0.375036
0.50434
0.527418
0
0.716937
0
0.503318
0
0.689229
0
0.474134
0.463149
0
0
0.603501
0
0
0.177264
0.0966343
0
0.657635
0
0.32245
0
0.172997
0
0.176403
0
0.0836043
0
0
0.0951521
0
0.0342484
0
0.0189399
0
0.0580901
0.0394359
0
0.0467557
0
0
0
0.0511903
0.0267963
0.014337
0.0106024
0.00149699
0
0
0.0353186
0.00490829
0
0
0
0.0112799
0.0412368
0.0381232
0.0411078
0.0389987
0.0370907
0.0152865
0.0399194
0.0390256
0.0155105
0.0319988
0.0301519
0.0243237
0.0236243
0.0174391
0.0179506
0.0407771
0.0286643
0.0152735
0.0698066
0.0468357
0.0246919
0.0526513
0.0614005
0.0400231
0.0554858
0.054473
0.0333784
0.0560449
0.0433064
0.041958
0.0189631
0.0185677
0.0200868
0.0198274
0.0392594
0.0324579
0.0194449
0.0415206
0.0429586
0.00909209
0.0129047
0.0170727
0.0135038
0.0469298
0.00276216
0.0153053
0.0104348
0.00908695
0.0158847
0.0216128
0.0149581
0.00828714
0.00160445
0.00052613
0.00365338
0.00805869
0.00302256
0.00538669
0
0
0
0
0.00526333
0
0.0259192
0.00927397
0
0
0
0
0
0.0106176
0
0.0419595
0
0.0577267
0.0332374
0
0
0
0
0.108371
0
0.0600126
0
0.189207
0
0.36239
0
0.395844
0
0.228293
0
0.174672
0
0.725664
0
0
0
0.137986
0.234101
0
0
0
0.643903
0.16074
0
0.12791
0
0.0815688
0.0262077
0.0117214
0.0435205
0.00882046
0
0
0.0112242
0.00825818
0.00709827
0.0212996
0
0.204907
0
0
0.0550694
0
0.878844
0
0
0
0.135725
0
0.021061
0.122267
0.0278816
0
0.11091
0
0
0.0254556
0.925261
0
0.203878
0
0.0815661
0.758556
0
0.666218
0
0.724635
0
0
0.306338
0.125497
0
0
0.090083
0
0.00904629
0
0
0
0.509184
0.0088431
0
0.0501636
0
0
0
0
0
0
0.0249458
0
0.197711
0.288112
0
0
0
0
0
0
0.710802
0.740894
0
0
0
0
0.00744935
0
0
0.0278547
0
0.0340995
0
0
0.0340938
0
0.38234
0.715418
0.149026
0.562035
0
0.895199
0
0
0
0.925976
0
0.519513
0.536096
0
0
0.110527
0
0
0.309072
0
0
0.671133
0
0.187926
0
0.0732892
0
0.137056
0
0.114179
0
0.00361632
0.00874766
0
0.0633423
0
0.0132767
0
0.0752341
0.0689271
0
0.0349522
0
0
0
0.0454754
0.0288664
0
0.0289021
0
0.0350423
0
0.0204427
0
0.00413615
0
0.0327802
0.0149472
0.0245664
0.0319779
0.0282818
0.0405435
0.0402275
0.0275751
0.0523658
0.0525414
0.0282556
0.0245794
0.00468174
0.0270705
0.0353642
0.0145866
0.0189602
0.0750635
0.035398
0.0162424
0.0664889
0.0350251
0.0072079
0.0383908
0.0594488
0.0520803
0.0620243
0.0619362
0.0339122
0.0690731
0.0320916
0.0636038
0.0480241
0
0.0326734
0.086923
0.000548681
0.0263733
0.0243667
0.0418402
0.0266054
0.020618
0.0250398
0.0217308
0.0280663
0.0130156
0.0135598
0.0158359
0.0173472
0
0.0190383
0.00575268
0.0113799
0
0.00856211
0.00671577
0.00658983
0.0162422
0.013962
0
0
0
0
0
0.00665454
0.0121642
0.00559227
0.0364016
0
0
0
0
0.0184824
5.56663e-05
0
0.03175
0
0
0.0659588
0
0
0.0883767
0
0.196935
0
0
0.0298326
0.135501
0
0.651711
0
0.674402
0
0.0756328
0
0.600629
0
0.881175
0
0.0563759
0
0.783932
0.486428
0
0
0.77756
0.792602
0.787495
0
0
0.607792
0
0.127523
0
0.0485314
0.0301858
0
0
0
0
0
0.0159647
0
0
0.0391919
0
0.154216
0.543297
0.78204
0.167958
0
0.0301578
0.255848
0
0.0218723
0.11039
0
0.0329152
0.019644
0
0.153869
0.549788
0
0.472361
0
0.292602
0
0.286552
0
0.282823
0
0.677608
0
0
0.218403
0
0
0.102077
0
0.0590487
0.084087
0
0.0234763
0.0204872
0
0
0
0
0.0935844
0.0129506
0.0599164
0.109916
0
0.263069
0
0.327104
0
0
0.111166
0.145745
0.172468
0.804451
0
0.766426
0
0
0.784622
0.285275
0.0227087
0.0593663
0
0.00229034
0
0.054465
0
0.0408894
0.0295514
0.0258274
0.303898
0
0.624598
0.0151918
0.494856
0
0.794541
0
0.709626
0
0.368743
0
0.758741
0
0.456144
0.0482674
0.620776
0
0.253701
0
0
0.0669319
0.266328
0
0.479347
0
0.173017
0
0.064672
0
0.102667
0
0.0634589
0
0.0185939
0.000560839
0
0
0
0.0302351
0.0270307
0.00909078
0.0229829
0
0.00607803
0.00506566
0.0307575
0.0183894
0.00572868
0.0168019
0
0.0322696
0
0.0272192
0.0334325
0.0181615
0
0
0.00355521
0.0130393
0.0334855
0.0402338
0.0582077
0.0372549
0.0328067
0.0277853
0.0314018
0.0402043
0.02293
0.0375811
0.0127478
0.0140951
0.0386738
0.0233336
0.0199781
0.0409472
0.0507331
0.0160991
0.0857325
0.069299
0
0.049924
0.0549045
0.0331984
0.0711262
0.0585945
0.0287939
0.0707364
0.0519247
0.0203252
0.0309164
0.0325641
0.010475
0.0651384
0.0217793
0.0304605
0.0654496
0.0163247
0.0218033
0.0221708
0.0182676
0.0245939
0.0121489
0.0178736
0.00693655
0.0324033
0.0227671
0.00861635
0.01326
0.0219108
0
0.01072
0.0120541
0
0
0.0209232
0
0.0134601
0
0.00988474
0
0.0145026
0
0.00178629
0.0124917
0
0.0182387
0
0
0.00960488
0
0.00029795
0
0
0.0139049
0.142022
0
0.0680811
0
0
0.311245
0
0.216457
0.0245431
0
0.00897431
0.259992
0
0.369233
0
0.243941
0.0240879
0.621144
0
0.407641
0
0.622797
0.229026
0.2368
0
0
0.376304
0.139858
0.00341096
0
0.393182
0.78897
0
0
0.322168
0.175481
0
0.00918521
0
0
0
0
0
0
0
0.0934899
0
0.264022
0.127084
0.293982
0
0
0.0726775
0.183295
0.0494371
0
0.326347
0
0
0
0.0403114
0
0.235135
0.023713
0.279143
0
0.168059
0.250403
0
0.0981377
0
0.186003
0
0.486822
0
0
0.538326
0
0.00397135
0
0.00992561
0
0.0280144
0.0271476
0
0.00931383
0.0107182
0
0
0
0
0.051811
0.01937
0.104441
0.157794
0.234361
0.67327
0
0.197552
0
0
0.0374655
0
0.0300144
0.656499
0
0.857807
0
0
0.65161
0.0579299
0.0217581
0.048017
0.00613915
0.0111888
0.018792
0
0.00797359
0
0.116708
0.62586
0.577019
0.154649
0.312257
0
0.268447
0
0.712923
0
0.790712
0
0
0
0.676376
0
0.579503
0
0.616381
0.074599
0
0
0
0.172865
0.0838441
0
0.277267
0
0.155779
0.178554
0
0.0732759
0.0429416
0
0.0537175
0
0.0132143
0
0.0747477
0
0.0113476
0.00512096
0.000891768
0.0511264
0
0
0
0.00100288
0
0.0548724
0
0.0311611
0
0.0157474
0.00273968
0.0236234
0.00369984
0.0169852
0.0101028
0.00411755
0.025705
0.0148554
0.0266909
0.0433
0.0295745
0.0331593
0.0412108
0.032295
0.0257646
0.0442752
0.0374917
0.0386326
0.0154066
0.026657
0.0143384
0.0336138
0.0333444
0.0257824
0.0316271
0.0451058
0.070836
0.0358326
0.0311859
0.0272565
0.0523227
0.0478199
0.0607996
0.0724905
0.0394134
0.106463
0.0296261
0.00788126
0.101131
0.00611967
0.0033166
0.0575211
0.0064576
0.0402772
0.0280842
0.0206284
0.0174864
0.035885
0.0374364
0.0105458
0.0187103
0.0148563
0.050009
0.0160404
0.0144292
0.00308693
0.0116784
0.00758594
0.0124848
0
0.00877304
0.00607935
0
0.0211162
0
0.00242475
0
0.01105
0
0.0169032
0
0
0.00774471
0
0.0157439
0
0
0.000202492
0
0
0
0.048786
0
0.11164
0
0
0
0
0.183377
0
0.201108
0
0
0.0929913
0.365982
0
0.362619
0
0
0
0.800399
0
0.751492
0
0.86936
0
0.615261
0
0
0
0.638135
0.535921
0
0
0.528704
0.275447
0
0.0900361
0
0.56137
0
0
0.0417956
0
0.0224423
0
0.0175332
0
0.0493215
0.138924
0
0.0447021
0.00655433
0
0
0
0.11096
0.0180432
0
0.342926
0
0
0.178966
0
0
0.280442
0
0
0.365918
0
0.361624
0
0.224841
0
0.0218714
0
0.169731
0
0
0.109616
0
0.101418
0.0323245
0
0.124556
0
0
0.0585659
0
0
0.568333
0.0614744
0.0152987
0.0729009
0.0532508
0
0.0183161
0
0.0303049
0
0.133624
0
0.208196
0
0
0
0
0
0.624225
0
0.833977
0.634335
0
0
0
0
0
0
0.00361817
0
0.0475717
0
0
0.712025
0
0.533149
0.631433
0
0
0.866867
0
0.0446374
0
0.670095
0
0.71542
0
0.787105
0
0.484136
0
0.139082
0.0441182
0.215003
0.120037
0
0.158209
0.10021
0
0.265664
0
0
0.194011
0
0.00492954
0.0783879
0
0.0788161
0
0.0553663
0
0.0892332
0
0.000725015
0.0723213
0
0.065675
0
0.0577003
0
0.0713582
0
0.0275544
0
0
0.00761817
0.00513886
0.0298742
0.0300942
0.0120488
0.0037668
0
0
0.0239345
0.0270413
0.0433714
0.0493158
0.0226468
0.0385136
0.0409314
0.0384153
0.0380222
0.0249529
0.0396163
0.0120306
0.0175115
0.0201198
0.0588548
0.0264982
0.0233885
0.0896082
0.0285364
0.0756694
0.0506404
0.00455974
0.0449489
0.0446298
0.0573576
0.0632221
0.0617263
0.0461563
0.0558096
0.0585108
0.0277152
0.020244
0.0231693
0.0222935
0.0301229
0.0274176
0.0407886
0.0336347
0.0214735
0.0245964
0.0383785
0.0130614
0.0123376
0.0276468
0.0371692
0.0157538
0.0138483
0.0126001
0.00898952
0.0329738
0.0377783
0.0044338
0.00767603
0.00612382
0
0
0.00336042
0.0130739
0.0155264
0
0.00997418
0
0
0
0.0197349
0
0.040198
0
0
0.0201451
0.00645773
0
0
0.00650901
0
0.0679464
0
0.0236641
0
0.00321919
0.19775
0
0.372602
0
0.16656
0.0631839
0.00747631
0
0.214292
0
0.528355
0.226135
0.244835
0
0.626839
0
0.42647
0
0.512586
0.0412408
0.557625
0
0
0.485243
0.483788
0.398594
0
0
0.82806
0.691968
0
0
0.503306
0
0.0732518
0.00487241
0.0202782
0.0425797
0
0.00392036
0.0168219
0
0.0637703
0
0
0
0.268999
0.211567
0
0
0
0.328058
0
0.182366
0.0462751
0
0.0325741
0
0
0.0961197
0
0.290296
0.105969
0
0.182221
0
0.168052
0.0191161
0.0742134
0
0.0676286
0.124617
0
0.0250703
0.0476072
0
0
0.101541
0.0124718
0
0
0.0470086
0
0
0.0311011
0.000510579
0.0390557
0.0826491
0
0
0
0
0
0.137525
0
0.125849
0
0.0348131
0.124052
0
0
0.809548
0
0.750461
0.219192
0
0.0270819
0.00553187
0
0
0
0.000587832
0
0.0377695
0.0351925
0
0
0
0.250229
0.513324
0.342624
0
0.705385
0.119686
0.509107
0
0.772342
0.41965
0.42558
0
0.545282
0
0.354166
0.0636287
0.263207
0.295906
0.0249098
0.11884
0
0.113408
0
0.0705859
0.19999
0.152761
0
0.198608
0
0.0196316
0.108098
0
0.028071
0
0.0328984
0
0.0363842
0
0.0468421
0
0
0.0361532
0
0.103557
0
0.0709923
0
0
0
0
0
0.0244508
0.0339558
0.0155069
0.0317626
0.00951851
0.0130492
0.0120248
0.0213089
0.0269976
0.0458443
0.0294716
0.0355814
0.0271958
0.0280411
0.0257071
0.0481695
0.0376072
0.0335374
0.0483878
0.0262679
0.0173385
0.0203853
0.038791
0.0235975
0.0661843
0.0377319
0.0498936
0.0585889
0.0186785
0.0501328
0.0566258
0.0272457
0.0690715
0.089433
0.00922838
0.0590301
0.0786907
0.0385796
0.0114446
0.0355073
0.0448643
0.0125445
0.0395355
0.0356016
0.0168038
0.029534
0.0515584
0.0215891
0.0180607
0.0165566
0.0433559
0.0158823
0.0287843
0.009237
0.0211268
0.0125291
0.0229036
0.00309829
0.00346537
0.0105788
0
0.0232793
0
0.0135208
0
0.00293358
0
0.0112326
0
0.0265186
0
0.000472422
0
0
0.0100709
0
0.0157632
0
0
0
0.0133673
0
0.11652
0.00736
0.0565784
0
0
0
0
0.243116
0
0.191942
0
0.124889
0
0.113444
0
0.190144
0.172726
0.43547
0
0.524323
0
0.522323
0
0.710959
0
0.315908
0
0.21427
0.71281
0
0
0.31283
0
0.295641
0.516385
0.175992
0
0
0.381924
0
0
0.00347414
0
0.0215078
0
0.00866797
0
0
0.22519
0
0
0.28865
0.0747252
0
0
0
0.267707
0
0.175793
0.0787007
0
0.0318663
0.462583
0
0
0.485956
0
0.140002
0
0.208723
0
0.168792
0.161981
0
0
0.0422821
0
0
0
0
0.168737
0.0850511
0
0.124156
0.0817214
0
0.00621218
0.149071
0
0
0
0
0
0
0
0.045392
0.0792773
0.43153
0
0.0515063
0
0.2136
0.057476
0
0.0522783
0
0
0.752717
0
0
0.103744
0
0.0317989
0
0.00250072
0.012351
0
0.0970969
0
0.418508
0
0
0.24269
0
0
0.158395
0.903887
0
0
0
0.887324
0
0.342154
0
0.41688
0
0.770266
0
0
0.0495086
0
0.214182
0
0.399511
0
0.309484
0
0
0
0.176827
0
0.0268582
0.00901657
0
0.074673
0.0254635
0.0345494
0
0.0264597
0.00159116
0.0333464
0
0.000339979
0.0143359
0
0.0855957
0
0.118888
0
0.0561616
0
0.00373983
0
0.014375
0.00500038
0.048044
0.00934311
0.025392
0
0.0154373
0
0.0295388
0.0327587
0.0427588
0.0312883
0.0267913
0.0376094
0.028379
0.0377487
0.0585035
0.0436067
0.0207221
0.0233414
0.0314618
0.0143281
0.0413197
0.039449
0.0317471
0.0735877
0.0270357
0.0784686
0.0553967
0.00191109
0.043025
0.0618782
0.0549365
0.0471447
0.0754205
0.0426567
0.0382259
0.0560735
0.0636324
0.00380631
0.0123828
0.0751674
0.0307403
0.0396313
0.0342279
0.022573
0.0469429
0.0290534
0.0162204
0.0252384
0.0283123
0.0251298
0.0202054
0.0182246
0.0126868
0.0436289
0.00296657
0.0144052
0.0195146
0.00856409
0.0107566
0.0290543
0
0.00288082
0.00715263
0
0.00957045
0
0
0
0
0.00304293
0
0.00900951
0
0
0
0
0
0.0258417
0
0
0.0519276
0
0
0
0.0296015
0.0204341
0.0822283
0.0911753
0
0.119187
0
0.18795
0
0.396477
0
0.298248
0.180083
0.234473
0
0.0451061
0
0.762069
0
0.691863
0
0.661595
0.180708
0.713387
0.624577
0
0
0
0.398221
0.524461
0
0
0.644633
0.00971071
0
0.808804
0
0.271524
0.00437908
0
0.0413744
0
0
0.0167282
0
0
0
0
0
0
0.51372
0.398725
0
0
0.266102
0
0.00225977
0.0635264
0
0.741828
0.155178
0
0.299147
0
0
0.355323
0
0.375878
0
0
0.120018
0.0142189
0
0
0.15738
0
0
0.0468505
0
0
0.0354489
0.00700281
0
0
0.0381052
0.00154214
0
0
0.079319
0
0
0
0.25594
0.215194
0.582283
0
0.207239
0
0.184643
0
0
0.127577
0
0
0.686257
0
0
0.0242469
0
0
0.0145084
0.00619169
0.00660498
0
0.189258
0
0.19563
0.556504
0
0.816044
0
0
0
0.912108
0
0
0
0.934645
0
0.338112
0.583627
0.229686
0
0.635864
0
0
0
0.0169843
0.400945
0.0124547
0.178073
0
0.290282
0
0.184301
0
0.0178233
0
0.0016667
0
0.0795216
0
0.0809168
0.00574755
0.0309205
0
0
0.0500435
0.0401089
0
0.0267985
0
0.0339801
0
0.0564106
0
0.0465972
0
0
0.0154905
0
0.0246427
0.0281191
0.0137855
0.033788
0.0187983
0.00304071
0.0205877
0.0260113
0.0260846
0.0446675
0.0372781
0.0483004
0.01688
0.0193449
0.0289103
0.028776
0.0639032
0.043696
0.0244083
0.0409413
0.038437
0.0166242
0.0336111
0.0332807
0.0429004
0.0436689
0.0754557
0.0345483
0.0354165
0.0424242
0.0491242
0.0701599
0.0526076
0.0462159
0.0457139
0.0709422
0.0394571
0.0531532
0.0640616
0.0132076
0.0351911
0.0364579
0.0432995
0.0256331
0.0261331
0.0328285
0.031475
0.0230137
0.0254408
0.0313878
0.0186052
0.0208725
0.0399357
0.00858989
0.0140265
0.00964405
0.00851868
0.0100328
0.0134361
0.0165563
0.00246797
0.012019
0
0.00832072
0.00802492
0
0.00801715
0
0.0286558
0
0.0205147
0
0
0.0210209
0
0.01615
0
0
0.0011185
0
0.0174789
0
0.0310343
0
0
0.0755964
0
0
0.13125
0
0.15641
0
0.207265
0
0.211047
0
0.16579
0.37871
0.455762
0
0
0
0.51392
0
0.512322
0
0.778727
0.175592
0.749726
0.195027
0
0
0
0.49837
0.439931
0
0
0.33201
0.236521
0.468826
0.299184
0
0.465266
0.0943958
0.0193715
0
0.0361392
0.00155917
0
0.0144921
0
0
0.0427176
0
0.0391365
0.146029
0.236622
0.0394587
0
0.153682
0
0.0458438
0.102359
0
0.865353
0
0.44979
0
0
0
0.475488
0
0.354738
0
0
0.0769789
0
0
0
0.0297797
0
0.115933
0
0
0.0800618
0
0
0.148418
0
0
0.0250771
0.0272704
0.00735631
0
0.0685979
0.0852258
0.116178
0
0
0
0.301695
0.0305091
0
0
0.00878638
0.30385
0
0.524992
0.728118
0
0.504679
0.029711
0
0.0169515
0
0.0209047
0.00480496
0
0
0
0.116795
0
0.295352
0.444576
0.0928863
0.772748
0.274305
0.372353
0
0.447451
0.732148
0.839729
0
0.697845
0
0.0133104
0.506275
0.264842
0
0.0887701
0.472446
0
0
0
0.122577
0.2563
0.22925
0
0.120648
0
0.181059
0.156391
0.0530932
0.0217589
0.0411401
0
0.111175
0
0.0459946
0
0.059002
0.0489695
0
0.0236506
0.0582861
0
0.0855224
0
0.0649605
0
0.0344402
0
0.0472778
0
0.0364633
0.00280541
0.0513404
0
0.045686
0
0.0101192
0.0166539
0.0116547
0.0412628
0.0406847
0.0363826
0.0272772
0.0376369
0.0297444
0.0271273
0.0444047
0.0427325
0.0570359
0.032085
0.0186189
0.0304327
0.0285568
0.031498
0.0558376
0.0334608
0.0479582
0.0452281
0.0710671
0.0459436
0.0162886
0.0378941
0.0527565
0.0692189
0.0497652
0.0690727
0.0475571
0.0453964
0.0683886
0.0275157
0.0118194
0.0510721
0.0288734
0.0393852
0.041419
0.0273783
0.0425195
0.0243116
0.016902
0.0398325
0.03888
0.00834648
0.0390441
0.0305906
0.0277254
0.0076174
0.0206166
0.00403078
0.0231677
0.0263706
0.024941
0
0.0283588
0
0.0350577
0
0.0248196
0
0
0
0
0.00653469
0
0.00702551
0.0535477
0
0.0433243
0
0.00352717
0
0
0.0114073
0
0.0779715
0
0.0324819
0.0611817
0
0.0852466
0.0650178
0
0.0846127
0
0.0346808
0
0.249933
0
0.403911
0.000754214
0
0
0.401448
0
0.243919
0
0.364342
0
0.766042
0
0.082435
0
0.132594
0.514132
0.412278
0.241717
0
0
0
0.39222
0
0.295504
0.140166
0
0.00877419
0
0.104715
0
0
0.0126293
0
0
0.00848127
0.0100154
0.06383
0
0.128008
0.0368493
0
0
0.0384915
0.212598
0
0.111614
0
0
0.297511
0
0
0.351934
0
0
0.118503
0
0.133635
0
0.0306573
0.25131
0
0.117412
0
0.118962
0
0
0
0
0.0139064
0.0130983
0
0
0
0.0406113
0
0
0.0310701
0.0177524
0
0
0.0905352
0.0845385
0
0
0
0.415803
0
0.0201605
0
0.00247038
0.26936
0
0.506714
0.642036
0
0.230941
0
0.00697537
0.0328204
0
0
0
0
0.259848
0
0.489994
0
0
0.232984
0
0.885178
0.543569
0
0
0.787415
0.624058
0.708861
0
0.905484
0
0.166985
0.579133
0.508301
0
0
0.496765
0
0
0
0.119696
0.526828
0.199847
0
0.117613
0
0.195805
0.0757794
0.0908511
0
0.0864561
0
0.139637
0
0.118742
0
0
0.00695333
0.0531661
0
0.0926663
0
0.0234485
0
0.0281567
0
0.0113121
0
0.0202079
0.00620956
0.0390766
0.0175027
0.0203943
0.00717467
0.0488775
0.0171121
0.0206913
0.00743516
0.0200051
0.022781
0.0321538
0.0519054
0.0423698
0.0482751
0.0253119
0.0164964
0.0365545
0.0131033
0.0524766
0.0648783
0.0301155
0.0302759
0.0389109
0.0172198
0.056622
0.0248031
0.0204203
0.0652278
0.0605249
0.0644889
0.0479006
0.0502705
0.0484974
0.0335405
0.0602217
0.072512
0.0188498
0.062071
0.056522
0.0340096
0.0512147
0.0401986
0.0205778
0.0406009
0.0500015
0.0233841
0.0436943
0.0117113
0.0261501
0.0568331
0.0130507
0.0233016
0.0315204
0.0554117
0.0189644
0.00927996
0.0182717
0.0187762
0.00518485
0.00906268
0.014511
0.00201678
0.0232044
0.0210223
0.019546
0
0.0209448
0
0
0.00165917
0
0
0.0059365
0
0.0270354
0
0.0363862
0
0
0
0
0.121779
0
0.142446
0
0
0.0624624
0
0.0616595
0.187337
0
0.0761997
0
0
0
0.212812
0.029274
0.47153
0.112183
0
0
0.455611
0
0.314501
0
0.538859
0
0.911969
0
0.587249
0
0.190962
0.731539
0.440391
0.592493
0
0
0
0.675286
0
0.0513259
0
0
0.539244