/*--------------------------------*- C++ -*----------------------------------*\
| =========                 |                                                 |
| \\      /  F ield         | OpenFOAM: The Open Source CFD Toolbox           |
|  \\    /   O peration     | Version:  v2006                                 |
|   \\  /    A nd           | Website:  www.openfoam.com                      |
|    \\/     M anipulation  |                                                 |
\*---------------------------------------------------------------------------*/
FoamFile
{
    version     2.0;
    format      ascii;
    class       volScalarField;
    location    "160";
    object      nut;
}
// * * * * * * * * * * * * * * * * * * * * * * * * * * * * * * * * * * * * * //

dimensions      [0 2 -1 0 0 0 0];


internalField   nonuniform List<scalar> 
65536
(
2.85327e-06
1.82768e-06
1.9543e-06
2.22445e-06
2.206e-06
2.10899e-06
2.09875e-06
2.07392e-06
1.97332e-06
1.85089e-06
1.64257e-06
1.25138e-06
1.16032e-06
1.05274e-06
9.67559e-07
8.38718e-07
6.25317e-07
4.41992e-07
4.65783e-07
6.01728e-07
6.29996e-07
5.44947e-07
4.37121e-07
4.56732e-07
5.39556e-07
5.07391e-07
5.60423e-07
6.00273e-07
5.61138e-07
4.83014e-07
3.3466e-07
2.73095e-07
3.03592e-07
4.35769e-07
6.87754e-07
8.70452e-07
1.0753e-06
1.37049e-06
2.1601e-06
3.07123e-06
4.52297e-06
5.85165e-06
6.96311e-06
7.91384e-06
8.69361e-06
9.41965e-06
1.00264e-05
1.05667e-05
1.10499e-05
1.14902e-05
1.18868e-05
1.22457e-05
1.25667e-05
1.28691e-05
1.31345e-05
1.33835e-05
1.36077e-05
1.38103e-05
1.39924e-05
1.41568e-05
1.43029e-05
1.4432e-05
1.45464e-05
1.46429e-05
1.47254e-05
1.47891e-05
1.48427e-05
1.48783e-05
1.49024e-05
1.49108e-05
1.49082e-05
1.48879e-05
1.48585e-05
1.48141e-05
1.47588e-05
1.46895e-05
1.46107e-05
1.45154e-05
1.44109e-05
1.42921e-05
1.41687e-05
1.40294e-05
1.38824e-05
1.37209e-05
1.35551e-05
1.33726e-05
1.31836e-05
1.2985e-05
1.27735e-05
1.25554e-05
1.23233e-05
1.20855e-05
1.18339e-05
1.15754e-05
1.13066e-05
1.10327e-05
1.07414e-05
1.04525e-05
1.01472e-05
9.84403e-06
9.52356e-06
9.20746e-06
8.87389e-06
8.54047e-06
8.19205e-06
7.84338e-06
7.47769e-06
7.11451e-06
6.73512e-06
6.35966e-06
5.97506e-06
5.58957e-06
5.19489e-06
4.78212e-06
4.35995e-06
3.89456e-06
3.43026e-06
2.90434e-06
2.3818e-06
1.76813e-06
1.22473e-06
6.39735e-07
2.8574e-07
8.79785e-08
3.58916e-08
1.17014e-08
7.01752e-09
2.11314e-09
5.16095e-09
1.41521e-08
3.01272e-08
7.27755e-08
1.58675e-07
4.25788e-07
8.065e-07
1.41499e-06
1.99731e-06
2.65397e-06
3.22421e-06
3.80246e-06
4.29669e-06
4.79361e-06
5.22803e-06
5.66987e-06
6.06715e-06
6.47595e-06
6.856e-06
7.24076e-06
7.61194e-06
7.98142e-06
8.34218e-06
8.70002e-06
9.04975e-06
9.39551e-06
9.73255e-06
1.00626e-05
1.03861e-05
1.07025e-05
1.10106e-05
1.13098e-05
1.16056e-05
1.18869e-05
1.21629e-05
1.24273e-05
1.26865e-05
1.2933e-05
1.31707e-05
1.33988e-05
1.36172e-05
1.38237e-05
1.40202e-05
1.42109e-05
1.43821e-05
1.45529e-05
1.4703e-05
1.48519e-05
1.49772e-05
1.51044e-05
1.52109e-05
1.53138e-05
1.53948e-05
1.54727e-05
1.55291e-05
1.55834e-05
1.56139e-05
1.5644e-05
1.56477e-05
1.56512e-05
1.56246e-05
1.56046e-05
1.5545e-05
1.55021e-05
1.54101e-05
1.53372e-05
1.52102e-05
1.51034e-05
1.49473e-05
1.48055e-05
1.46134e-05
1.44318e-05
1.41952e-05
1.397e-05
1.36917e-05
1.34097e-05
1.30764e-05
1.27304e-05
1.23216e-05
1.18895e-05
1.13786e-05
1.08181e-05
1.01025e-05
9.56251e-06
7.87669e-06
4.19319e-06
1.64802e-06
4.43118e-07
9.44934e-08
7.03213e-08
1.0692e-07
1.13012e-07
1.32341e-07
1.20857e-07
2.94765e-07
5.56717e-07
7.4143e-07
9.17767e-07
1.07371e-06
1.26092e-06
1.47303e-06
1.65939e-06
1.90988e-06
2.10887e-06
1.77174e-06
1.2444e-06
1.19031e-06
1.08953e-06
1.03564e-06
1.23347e-06
1.76817e-06
3.25416e-06
4.83514e-06
6.35097e-06
7.49609e-06
7.83515e-06
7.87353e-06
7.64184e-06
7.47784e-06
7.20035e-06
6.88288e-06
6.42993e-06
5.78192e-06
5.20141e-06
4.64608e-06
4.26433e-06
3.82213e-06
3.27546e-06
3.84281e-07
2.35994e-07
2.13616e-07
2.32177e-07
3.89118e-07
2.42167e-07
6.11822e-07
7.01558e-07
8.9868e-07
1.18039e-06
1.64599e-06
1.89971e-06
2.08145e-06
2.18445e-06
2.1369e-06
2.06676e-06
2.01772e-06
1.91442e-06
1.9042e-06
1.97259e-06
2.0005e-06
1.9958e-06
1.64786e-06
1.52578e-06
1.40144e-06
1.27779e-06
1.29892e-06
1.26222e-06
1.20201e-06
1.09743e-06
1.05393e-06
1.24106e-06
1.53238e-06
2.12919e-06
2.67487e-06
3.09569e-06
3.24931e-06
3.64319e-06
4.61723e-06
6.30018e-06
8.01827e-06
9.17669e-06
1.01735e-05
1.0775e-05
1.09803e-05
1.14072e-05
1.15769e-05
1.16639e-05
1.17993e-05
1.18609e-05
1.19626e-05
1.20023e-05
1.20385e-05
1.20854e-05
1.20916e-05
1.2102e-05
1.21049e-05
1.20855e-05
1.20687e-05
1.20355e-05
1.19939e-05
1.19508e-05
1.18901e-05
1.18298e-05
1.17562e-05
1.16756e-05
1.15891e-05
1.14913e-05
1.1387e-05
1.12766e-05
1.11569e-05
1.10309e-05
1.08981e-05
1.07585e-05
1.06099e-05
1.04575e-05
1.02968e-05
1.0128e-05
9.95694e-06
9.77941e-06
9.595e-06
9.4056e-06
9.21002e-06
9.00524e-06
8.80574e-06
8.58453e-06
8.37073e-06
8.14509e-06
7.91247e-06
7.67716e-06
7.43518e-06
7.1817e-06
6.93209e-06
6.661e-06
6.40121e-06
6.11481e-06
5.83892e-06
5.54732e-06
5.25682e-06
4.95324e-06
4.65471e-06
4.34031e-06
4.03035e-06
3.70611e-06
3.3961e-06
3.06164e-06
2.74924e-06
2.42352e-06
2.11776e-06
1.79397e-06
1.50446e-06
1.18913e-06
8.98449e-07
6.02202e-07
3.70319e-07
1.84123e-07
9.71316e-08
4.218e-08
2.18876e-08
1.23652e-08
1.02548e-08
1.05121e-08
1.13729e-08
1.37258e-08
1.43215e-08
1.85093e-08
1.86256e-08
2.05046e-08
2.07031e-08
1.86814e-08
1.75926e-08
1.51512e-08
1.37798e-08
1.18622e-08
1.15416e-08
1.19908e-08
1.43236e-08
2.61481e-08
4.93213e-08
1.24939e-07
2.45449e-07
4.87887e-07
7.46773e-07
1.07942e-06
1.36495e-06
1.71121e-06
2.00705e-06
2.34654e-06
2.65626e-06
2.99724e-06
3.30736e-06
3.65288e-06
3.96497e-06
4.30339e-06
4.61343e-06
4.94342e-06
5.23851e-06
5.55816e-06
5.84451e-06
6.14555e-06
6.41938e-06
6.70921e-06
6.96878e-06
7.24056e-06
7.48545e-06
7.74712e-06
7.97503e-06
8.22121e-06
8.44247e-06
8.67185e-06
8.87898e-06
9.10214e-06
9.29423e-06
9.50315e-06
9.68921e-06
9.88533e-06
1.00592e-05
1.02411e-05
1.0405e-05
1.05741e-05
1.07287e-05
1.08833e-05
1.10225e-05
1.11645e-05
1.12888e-05
1.14139e-05
1.15272e-05
1.16366e-05
1.17307e-05
1.18293e-05
1.19037e-05
1.19885e-05
1.20466e-05
1.21088e-05
1.21506e-05
1.21886e-05
1.22219e-05
1.22401e-05
1.22488e-05
1.22456e-05
1.22282e-05
1.21999e-05
1.21682e-05
1.20895e-05
1.20431e-05
1.19253e-05
1.18275e-05
1.16519e-05
1.14998e-05
1.11565e-05
1.0889e-05
1.07613e-05
8.54168e-06
5.79853e-06
4.35435e-06
3.08895e-06
2.25905e-06
2.15669e-06
2.08161e-06
1.97558e-06
1.9609e-06
1.87956e-06
1.73219e-06
1.50209e-06
1.45936e-06
1.74824e-06
1.96868e-06
2.05598e-06
2.34182e-06
2.62312e-06
2.78578e-06
2.61362e-06
2.31766e-06
2.21467e-06
2.16147e-06
2.27868e-06
2.42522e-06
2.91903e-06
3.48428e-06
4.11678e-06
4.47902e-06
4.59319e-06
4.274e-06
3.41211e-06
2.60891e-06
1.8529e-06
1.38842e-06
1.04273e-06
1.34229e-06
1.40123e-06
1.07517e-06
1.05818e-06
1.19822e-06
1.29707e-06
1.21834e-06
8.48632e-07
3.82231e-08
3.71663e-08
4.34805e-08
5.11353e-08
6.39766e-08
4.93005e-08
9.41094e-08
1.18001e-07
9.45214e-08
1.97703e-07
4.48503e-07
8.96442e-07
1.49809e-06
2.03043e-06
2.31616e-06
2.43279e-06
2.55491e-06
2.57772e-06
2.6061e-06
2.74068e-06
3.1231e-06
3.35695e-06
2.90773e-06
2.44495e-06
1.8485e-06
1.20274e-06
1.20146e-06
1.15336e-06
9.98617e-07
6.32494e-07
3.76307e-07
6.4068e-07
1.44062e-06
2.8332e-06
4.05713e-06
4.36184e-06
4.35348e-06
4.80426e-06
6.39057e-06
8.59602e-06
1.0287e-05
1.14081e-05
1.24196e-05
1.25877e-05
1.24716e-05
1.28309e-05
1.26061e-05
1.23955e-05
1.23072e-05
1.20928e-05
1.19704e-05
1.17753e-05
1.15878e-05
1.14309e-05
1.12236e-05
1.10353e-05
1.08503e-05
1.06335e-05
1.04404e-05
1.02215e-05
1.00096e-05
9.79842e-06
9.57372e-06
9.35903e-06
9.12686e-06
8.89817e-06
8.66079e-06
8.41701e-06
8.17187e-06
7.91606e-06
7.66271e-06
7.39508e-06
7.13283e-06
6.85352e-06
6.57613e-06
6.29094e-06
6.00212e-06
5.71036e-06
5.4157e-06
5.12108e-06
4.82253e-06
4.52572e-06
4.22687e-06
3.92883e-06
3.64284e-06
3.34517e-06
3.06731e-06
2.78179e-06
2.51064e-06
2.24144e-06
1.97269e-06
1.71878e-06
1.47375e-06
1.20903e-06
9.9666e-07
7.46907e-07
5.54355e-07
3.6481e-07
2.35481e-07
1.24097e-07
7.97179e-08
3.38344e-08
1.97127e-08
9.37325e-09
6.32459e-09
3.1179e-09
3.22634e-09
2.10075e-09
3.48129e-09
2.95533e-09
5.34303e-09
6.33033e-09
9.19729e-09
1.21336e-08
1.53153e-08
1.96724e-08
2.26604e-08
2.64175e-08
2.80389e-08
2.95484e-08
2.9681e-08
2.92545e-08
2.81639e-08
2.72116e-08
2.61626e-08
2.53924e-08
2.52549e-08
2.46944e-08
2.39608e-08
2.52809e-08
2.58243e-08
2.69478e-08
2.77028e-08
2.87186e-08
2.93259e-08
2.99202e-08
2.99561e-08
2.8516e-08
2.68617e-08
2.26659e-08
1.95868e-08
1.52586e-08
1.16883e-08
9.54549e-09
6.22289e-09
6.184e-09
3.48161e-09
4.2548e-09
3.15954e-09
4.95049e-09
4.64091e-09
1.0484e-08
1.35776e-08
3.19406e-08
4.96072e-08
1.12477e-07
1.69467e-07
3.15027e-07
4.44575e-07
6.7809e-07
8.52435e-07
1.13094e-06
1.34478e-06
1.61413e-06
1.85387e-06
2.13503e-06
2.38209e-06
2.67822e-06
2.94574e-06
3.24901e-06
3.5241e-06
3.84219e-06
4.12501e-06
4.44305e-06
4.73519e-06
5.05907e-06
5.34668e-06
5.6673e-06
5.95715e-06
6.26608e-06
6.55565e-06
6.85231e-06
7.13373e-06
7.42001e-06
7.68551e-06
7.96145e-06
8.21435e-06
8.48282e-06
8.72168e-06
8.9799e-06
9.21165e-06
9.45608e-06
9.68301e-06
9.90782e-06
1.01311e-05
1.03414e-05
1.05665e-05
1.07762e-05
1.09816e-05
1.11905e-05
1.13806e-05
1.15662e-05
1.17822e-05
1.19136e-05
1.21432e-05
1.22723e-05
1.24607e-05
1.25582e-05
1.2743e-05
1.27059e-05
1.27426e-05
1.31193e-05
1.13989e-05
8.58206e-06
6.82326e-06
5.34671e-06
4.00445e-06
3.3845e-06
3.01601e-06
2.65099e-06
2.50833e-06
2.61218e-06
2.45733e-06
2.1337e-06
2.23237e-06
2.31657e-06
2.34427e-06
2.42943e-06
2.91721e-06
3.41641e-06
3.60189e-06
3.14057e-06
2.53153e-06
2.30143e-06
2.22665e-06
1.96718e-06
1.71616e-06
2.3649e-06
2.75563e-06
2.82017e-06
2.58755e-06
2.32777e-06
1.91267e-06
9.72385e-07
3.8513e-07
1.15297e-07
4.89767e-08
2.0869e-08
2.16841e-08
3.577e-08
3.48988e-08
3.70331e-08
4.19038e-08
6.02949e-08
8.21911e-08
6.50853e-08
4.85877e-08
4.43906e-08
4.57337e-08
5.19073e-08
5.10436e-08
5.10033e-08
5.77583e-08
6.20199e-08
5.04564e-08
5.87577e-08
8.27449e-08
2.00863e-07
5.32803e-07
9.84325e-07
1.3399e-06
1.69805e-06
1.9671e-06
2.10138e-06
2.02042e-06
2.2648e-06
3.10438e-06
3.76856e-06
3.50903e-06
2.74518e-06
1.25574e-06
1.46616e-07
1.72495e-08
2.38645e-08
2.36933e-09
2.89407e-08
1.7878e-09
3.8051e-09
5.71726e-07
2.83911e-06
4.79421e-06
5.30225e-06
5.31421e-06
6.21365e-06
8.20152e-06
1.05348e-05
1.19982e-05
1.28425e-05
1.33771e-05
1.29332e-05
1.25375e-05
1.25856e-05
1.18892e-05
1.14035e-05
1.10731e-05
1.05611e-05
1.0197e-05
9.78375e-06
9.35971e-06
8.99734e-06
8.57931e-06
8.19205e-06
7.80761e-06
7.39304e-06
7.0092e-06
6.59269e-06
6.19594e-06
5.80378e-06
5.40671e-06
5.02761e-06
4.63605e-06
4.26299e-06
3.89076e-06
3.52646e-06
3.18467e-06
2.83463e-06
2.52591e-06
2.20525e-06
1.92464e-06
1.62821e-06
1.36154e-06
1.09964e-06
8.49339e-07
6.34104e-07
4.29074e-07
2.9214e-07
1.66081e-07
1.02957e-07
5.59774e-08
3.16304e-08
2.01033e-08
1.10005e-08
9.8961e-09
5.36549e-09
6.3923e-09
5.48784e-09
5.73881e-09
6.57752e-09
8.90336e-09
8.48545e-09
1.32747e-08
1.38002e-08
1.7897e-08
2.06502e-08
2.45774e-08
2.75223e-08
2.98577e-08
3.31494e-08
3.502e-08
3.61063e-08
3.64458e-08
3.75712e-08
3.57808e-08
3.73395e-08
3.26891e-08
3.49296e-08
3.04593e-08
3.09767e-08
2.86985e-08
2.77623e-08
2.67444e-08
2.56868e-08
2.52605e-08
2.45913e-08
2.4576e-08
2.4454e-08
2.47955e-08
2.50198e-08
2.52787e-08
2.55534e-08
2.57207e-08
2.5462e-08
2.61193e-08
2.60448e-08
2.58828e-08
2.63597e-08
2.6071e-08
2.60265e-08
2.65968e-08
2.67015e-08
2.61765e-08
2.59197e-08
2.55275e-08
2.53357e-08
2.51611e-08
2.56722e-08
2.57876e-08
2.67191e-08
2.7628e-08
2.80873e-08
3.08724e-08
2.94201e-08
3.40032e-08
3.24799e-08
3.52868e-08
3.46604e-08
3.64502e-08
3.50187e-08
3.52899e-08
3.3843e-08
3.20792e-08
2.9862e-08
2.69446e-08
2.48958e-08
2.07956e-08
1.91122e-08
1.46019e-08
1.39188e-08
1.02982e-08
9.19073e-09
8.22669e-09
7.38172e-09
6.61042e-09
8.46051e-09
7.74468e-09
1.32311e-08
1.47441e-08
2.91544e-08
4.30289e-08
7.49925e-08
1.30592e-07
2.25418e-07
3.32226e-07
5.27645e-07
7.09709e-07
9.69206e-07
1.19414e-06
1.48137e-06
1.75025e-06
2.05295e-06
2.34851e-06
2.67713e-06
3.00221e-06
3.37077e-06
3.72501e-06
4.11732e-06
4.50856e-06
4.90722e-06
5.3242e-06
5.73317e-06
6.16252e-06
6.57879e-06
7.02002e-06
7.44921e-06
7.87846e-06
8.31958e-06
8.7482e-06
9.15772e-06
9.64102e-06
1.00106e-05
1.05208e-05
1.09361e-05
1.14352e-05
1.18508e-05
1.24025e-05
1.2806e-05
1.31485e-05
1.41061e-05
1.34263e-05
1.09646e-05
9.04997e-06
7.366e-06
5.53028e-06
4.28193e-06
3.31996e-06
2.32135e-06
1.96301e-06
2.39445e-06
2.58586e-06
2.36633e-06
2.20902e-06
1.88806e-06
1.59704e-06
1.78667e-06
2.45566e-06
2.94656e-06
2.98635e-06
2.24458e-06
1.31351e-06
8.34566e-07
8.97682e-07
2.71053e-07
3.5848e-07
7.69067e-07
1.26455e-06
1.13651e-06
9.34848e-07
6.95996e-07
5.53491e-07
1.49705e-07
7.36749e-08
6.0912e-08
6.16143e-08
7.32353e-08
8.36726e-08
8.10657e-08
7.40301e-08
6.49657e-08
6.06262e-08
4.93183e-08
4.67713e-08
4.75462e-08
4.40477e-08
3.91864e-08
3.81215e-08
4.10548e-08
4.43005e-08
4.55648e-08
4.82787e-08
5.10227e-08
5.14694e-08
4.52655e-08
4.65233e-08
7.64396e-08
1.46809e-07
2.84993e-07
4.24135e-07
6.5587e-07
8.54695e-07
1.01527e-06
9.90407e-07
1.17096e-06
2.37876e-06
3.53621e-06
3.61827e-06
2.73931e-06
6.18085e-07
1.98785e-09
5.85422e-08
1.13332e-07
7.08921e-08
9.53916e-08
1.37352e-07
1.20889e-07
2.45e-07
2.42154e-06
5.09838e-06
6.03151e-06
6.19873e-06
7.51113e-06
9.64043e-06
1.18682e-05
1.30215e-05
1.33948e-05
1.32018e-05
1.21676e-05
1.14736e-05
1.10197e-05
9.86071e-06
9.10319e-06
8.47686e-06
7.6203e-06
6.9946e-06
6.32789e-06
5.64222e-06
5.07511e-06
4.46924e-06
3.94584e-06
3.44269e-06
2.9657e-06
2.54418e-06
2.11429e-06
1.75362e-06
1.42866e-06
1.11251e-06
8.49692e-07
5.91627e-07
4.14833e-07
2.59313e-07
1.60492e-07
1.08668e-07
6.22923e-08
4.96558e-08
3.22844e-08
2.88009e-08
2.22559e-08
2.21717e-08
2.00132e-08
2.07313e-08
2.17474e-08
2.14222e-08
2.43928e-08
2.41409e-08
2.64054e-08
2.70634e-08
2.81402e-08
2.90195e-08
2.87815e-08
2.96376e-08
2.9147e-08
2.91626e-08
2.8009e-08
2.84149e-08
2.69245e-08
2.60761e-08
2.63049e-08
2.44418e-08
2.45094e-08
2.37414e-08
2.34184e-08
2.27934e-08
2.27139e-08
2.26005e-08
2.23877e-08
2.23072e-08
2.25117e-08
2.27086e-08
2.27992e-08
2.32554e-08
2.31751e-08
2.44338e-08
2.38346e-08
2.52499e-08
2.48786e-08
2.58277e-08
2.59766e-08
2.64162e-08
2.67875e-08
2.6894e-08
2.69768e-08
2.68414e-08
2.69023e-08
2.69476e-08
2.71365e-08
2.69408e-08
2.66164e-08
2.68342e-08
2.63763e-08
2.62029e-08
2.60556e-08
2.59777e-08
2.64223e-08
2.62426e-08
2.69432e-08
2.75411e-08
2.78282e-08
2.77773e-08
2.78514e-08
2.77434e-08
2.75587e-08
2.74505e-08
2.73503e-08
2.74424e-08
2.70441e-08
2.66245e-08
2.66068e-08
2.56053e-08
2.62215e-08
2.47024e-08
2.49875e-08
2.41511e-08
2.3828e-08
2.33299e-08
2.31077e-08
2.28036e-08
2.24917e-08
2.25829e-08
2.23949e-08
2.28369e-08
2.25409e-08
2.33356e-08
2.31813e-08
2.42131e-08
2.40751e-08
2.5173e-08
2.5827e-08
2.57827e-08
2.71203e-08
2.7159e-08
2.79676e-08
2.75448e-08
2.87845e-08
2.72791e-08
2.82335e-08
2.67022e-08
2.65495e-08
2.57611e-08
2.41771e-08
2.4035e-08
2.29489e-08
2.18751e-08
2.32644e-08
2.15258e-08
2.53964e-08
2.66382e-08
3.3689e-08
4.12098e-08
6.04865e-08
8.29229e-08
1.37326e-07
2.10334e-07
3.32438e-07
5.15648e-07
7.24001e-07
1.00781e-06
1.29973e-06
1.64599e-06
2.00232e-06
2.42083e-06
2.85842e-06
3.34875e-06
3.88626e-06
4.4739e-06
5.0606e-06
5.7867e-06
6.42089e-06
7.23072e-06
7.98013e-06
8.83453e-06
9.62914e-06
1.0582e-05
1.15175e-05
1.225e-05
1.37541e-05
1.42755e-05
1.26464e-05
1.09032e-05
9.26029e-06
6.88729e-06
4.86425e-06
2.98038e-06
1.11498e-06
5.45373e-07
1.29949e-06
1.86342e-06
1.76759e-06
1.44877e-06
9.60464e-07
6.58008e-07
9.73733e-07
1.53915e-06
1.87051e-06
1.73322e-06
7.96862e-07
1.45059e-07
3.10493e-08
6.64027e-08
8.8909e-09
8.0109e-08
2.21593e-07
3.47685e-07
2.63844e-07
2.11153e-07
1.40924e-07
1.40647e-07
6.57804e-08
6.1896e-08
5.71318e-08
5.54386e-08
7.2233e-08
7.1443e-08
6.52924e-08
6.29666e-08
5.27366e-08
5.43154e-08
5.0049e-08
4.88256e-08
4.65662e-08
4.37719e-08
3.93648e-08
3.79244e-08
3.84393e-08
4.12927e-08
4.34412e-08
4.4995e-08
4.65196e-08
4.88407e-08
4.38109e-08
4.22376e-08
5.34276e-08
7.28578e-08
1.00965e-07
1.17047e-07
1.60902e-07
2.23909e-07
2.77128e-07
3.78664e-07
3.62712e-07
1.40884e-06
2.80971e-06
3.27674e-06
2.53479e-06
3.43182e-07
2.29358e-12
9.34138e-08
6.912e-08
5.85191e-08
6.67806e-08
9.00231e-08
2.3204e-07
4.88739e-07
2.2468e-06
5.22066e-06
6.6137e-06
6.98495e-06
8.49299e-06
1.05485e-05
1.25349e-05
1.32881e-05
1.30122e-05
1.19943e-05
1.04437e-05
9.38732e-06
8.32341e-06
6.73364e-06
5.68608e-06
4.78944e-06
3.76535e-06
3.143e-06
2.49266e-06
1.87658e-06
1.50044e-06
1.06041e-06
7.43015e-07
4.84338e-07
3.05666e-07
1.91361e-07
1.05431e-07
7.68966e-08
5.2618e-08
4.24311e-08
3.3633e-08
2.83781e-08
2.88058e-08
2.46077e-08
2.45465e-08
2.57905e-08
2.2586e-08
2.63964e-08
2.26108e-08
2.62785e-08
2.30708e-08
2.58945e-08
2.36225e-08
2.52186e-08
2.41224e-08
2.45989e-08
2.42021e-08
2.43568e-08
2.40944e-08
2.41647e-08
2.40395e-08
2.41234e-08
2.41441e-08
2.42507e-08
2.4306e-08
2.45089e-08
2.4727e-08
2.47362e-08
2.51368e-08
2.53127e-08
2.53504e-08
2.57144e-08
2.57871e-08
2.5884e-08
2.60848e-08
2.62572e-08
2.63679e-08
2.64273e-08
2.64398e-08
2.65363e-08
2.64827e-08
2.65904e-08
2.65919e-08
2.65468e-08
2.6552e-08
2.61867e-08
2.6482e-08
2.60271e-08
2.62766e-08
2.6067e-08
2.6251e-08
2.62222e-08
2.63088e-08
2.64162e-08
2.64533e-08
2.64844e-08
2.64452e-08
2.6534e-08
2.66191e-08
2.66067e-08
2.62751e-08
2.65535e-08
2.63684e-08
2.61681e-08
2.63201e-08
2.61211e-08
2.63761e-08
2.63371e-08
2.67923e-08
2.72213e-08
2.73829e-08
2.72776e-08
2.74493e-08
2.72346e-08
2.70409e-08
2.69247e-08
2.6908e-08
2.67463e-08
2.67689e-08
2.67423e-08
2.65736e-08
2.67567e-08
2.63789e-08
2.67062e-08
2.64574e-08
2.65701e-08
2.66351e-08
2.66784e-08
2.67349e-08
2.67628e-08
2.67851e-08
2.6706e-08
2.67089e-08
2.66258e-08
2.66038e-08
2.64148e-08
2.63523e-08
2.60642e-08
2.60607e-08
2.572e-08
2.55759e-08
2.5455e-08
2.52037e-08
2.49132e-08
2.4849e-08
2.45816e-08
2.45304e-08
2.43399e-08
2.43323e-08
2.41308e-08
2.41973e-08
2.41081e-08
2.4133e-08
2.41981e-08
2.41607e-08
2.41811e-08
2.4388e-08
2.41829e-08
2.42986e-08
2.43715e-08
2.41366e-08
2.40878e-08
2.47648e-08
2.34671e-08
2.55687e-08
2.45599e-08
2.71167e-08
2.77964e-08
3.36976e-08
3.71078e-08
4.99025e-08
7.13181e-08
9.74279e-08
1.69638e-07
2.72828e-07
4.41956e-07
7.09893e-07
1.07164e-06
1.42516e-06
2.01026e-06
2.5052e-06
3.23841e-06
4.05084e-06
5.04904e-06
6.10331e-06
7.42096e-06
8.93725e-06
1.01806e-05
1.21975e-05
1.3921e-05
1.34594e-05
1.22579e-05
1.09822e-05
8.32624e-06
5.3009e-06
2.55203e-06
6.01273e-07
1.33226e-07
3.58755e-07
8.74935e-07
8.89773e-07
6.07477e-07
3.11913e-07
2.45809e-07
4.60416e-07
7.37081e-07
8.16459e-07
5.57196e-07
1.05429e-07
5.02576e-08
3.05101e-08
4.15522e-08
3.07869e-08
9.27244e-08
1.29748e-07
1.00034e-07
9.80667e-08
8.25522e-08
6.85711e-08
7.30969e-08
5.91663e-08
6.16935e-08
5.78103e-08
6.09504e-08
6.86588e-08
7.18971e-08
6.53664e-08
5.85036e-08
5.15273e-08
5.00443e-08
4.75178e-08
4.88354e-08
4.73493e-08
4.14678e-08
3.96998e-08
3.84378e-08
3.78136e-08
3.94057e-08
4.08611e-08
4.26895e-08
4.43012e-08
4.6142e-08
4.44777e-08
4.24665e-08
4.75425e-08
5.58416e-08
6.1239e-08
6.09131e-08
6.47346e-08
9.13782e-08
8.60459e-08
1.82222e-07
1.24141e-07
5.87871e-07
1.88041e-06
2.64242e-06
2.18364e-06
2.36308e-07
2.24275e-10
1.0212e-07
5.87567e-08
5.91327e-08
6.51551e-08
7.37056e-08
1.68339e-07
5.67513e-07
2.1557e-06
5.1198e-06
6.96046e-06
7.54403e-06
8.99485e-06
1.0844e-05
1.25469e-05
1.28397e-05
1.17919e-05
9.95197e-06
7.95763e-06
6.48248e-06
4.88967e-06
3.17665e-06
2.31131e-06
1.73717e-06
1.00824e-06
7.01589e-07
3.71988e-07
1.56077e-07
1.53382e-07
6.25963e-08
4.85298e-08
4.34125e-08
3.11487e-08
3.07562e-08
2.61824e-08
2.63483e-08
2.47508e-08
2.54699e-08
2.48077e-08
2.37684e-08
2.58126e-08
2.3863e-08
2.47324e-08
2.51909e-08
2.37699e-08
2.56955e-08
2.36835e-08
2.54748e-08
2.40047e-08
2.51704e-08
2.4354e-08
2.49532e-08
2.462e-08
2.48176e-08
2.47536e-08
2.4848e-08
2.48211e-08
2.48736e-08
2.49187e-08
2.49544e-08
2.49673e-08
2.5045e-08
2.50448e-08
2.50274e-08
2.50603e-08
2.50287e-08
2.50351e-08
2.50487e-08
2.51527e-08
2.51538e-08
2.52244e-08
2.52225e-08
2.52216e-08
2.51824e-08
2.52664e-08
2.53333e-08
2.54117e-08
2.54284e-08
2.55201e-08
2.56935e-08
2.58305e-08
2.59031e-08
2.58969e-08
2.60668e-08
2.60275e-08
2.62542e-08
2.61632e-08
2.628e-08
2.63831e-08
2.65333e-08
2.64757e-08
2.64833e-08
2.66824e-08
2.67647e-08
2.68218e-08
2.6736e-08
2.68502e-08
2.68569e-08
2.64093e-08
2.63016e-08
2.64559e-08
2.61085e-08
2.60006e-08
2.60533e-08
2.61427e-08
2.6331e-08
2.68555e-08
2.72758e-08
2.74019e-08
2.75357e-08
2.76404e-08
2.73552e-08
2.7353e-08
2.73711e-08
2.7268e-08
2.71639e-08
2.71223e-08
2.68772e-08
2.68428e-08
2.66637e-08
2.66826e-08
2.63856e-08
2.63941e-08
2.6318e-08
2.62024e-08
2.60611e-08
2.5945e-08
2.58231e-08
2.57527e-08
2.56555e-08
2.5598e-08
2.55347e-08
2.542e-08
2.532e-08
2.5249e-08
2.51984e-08
2.51475e-08
2.51401e-08
2.51987e-08
2.51653e-08
2.51733e-08
2.51211e-08
2.51381e-08
2.50843e-08
2.51069e-08
2.50627e-08
2.5053e-08
2.50353e-08
2.49706e-08
2.49085e-08
2.48965e-08
2.47785e-08
2.46959e-08
2.4762e-08
2.4549e-08
2.48181e-08
2.4311e-08
2.50083e-08
2.41476e-08
2.48996e-08
2.44949e-08
2.43213e-08
2.50315e-08
2.38757e-08
2.54252e-08
2.34547e-08
2.6168e-08
2.3407e-08
2.60719e-08
2.58197e-08
2.68631e-08
2.78174e-08
3.58615e-08
3.60562e-08
4.86181e-08
8.66675e-08
9.77691e-08
2.40931e-07
3.98671e-07
7.25881e-07
1.16489e-06
1.90832e-06
2.67295e-06
3.74034e-06
5.45795e-06
7.15325e-06
9.64248e-06
1.24696e-05
1.3323e-05
1.29839e-05
1.23911e-05
9.75101e-06
5.74115e-06
2.35815e-06
4.78746e-07
1.00233e-07
1.27498e-07
2.92843e-07
3.0901e-07
2.0254e-07
1.33689e-07
1.48451e-07
2.59372e-07
3.47873e-07
2.83081e-07
1.34027e-07
6.40749e-08
7.54962e-08
5.65642e-08
4.96708e-08
4.91568e-08
9.19054e-08
9.59269e-08
5.88001e-08
7.60763e-08
6.00094e-08
5.90645e-08
5.65993e-08
5.92053e-08
6.04126e-08
5.54925e-08
6.06716e-08
6.35304e-08
6.97431e-08
6.31239e-08
5.32356e-08
5.21564e-08
4.97328e-08
4.69725e-08
4.76426e-08
4.52265e-08
4.04517e-08
3.95631e-08
3.90577e-08
3.86919e-08
3.90251e-08
3.90955e-08
4.08444e-08
4.16491e-08
4.34575e-08
4.41493e-08
4.32693e-08
4.59992e-08
4.99709e-08
5.02776e-08
5.03832e-08
4.69436e-08
6.24107e-08
4.82009e-08
1.09229e-07
7.55954e-08
1.91546e-07
1.03544e-06
1.89916e-06
1.75109e-06
2.16294e-07
7.81746e-09
9.27087e-08
5.95867e-08
8.17911e-08
1.20028e-07
1.38009e-07
1.75938e-07
6.22795e-07
2.25076e-06
5.02958e-06
7.07101e-06
7.7626e-06
8.95964e-06
1.05456e-05
1.19476e-05
1.17107e-05
9.83294e-06
7.30898e-06
5.09492e-06
3.43899e-06
1.82572e-06
6.62988e-07
5.35227e-07
3.47432e-07
7.44899e-08
6.92078e-08
5.5187e-08
2.21303e-08
4.65717e-08
2.10897e-08
2.58762e-08
2.94744e-08
2.08196e-08
2.85419e-08
2.24101e-08
2.57219e-08
2.42987e-08
2.42399e-08
2.5421e-08
2.35272e-08
2.55599e-08
2.40614e-08
2.47879e-08
2.487e-08
2.43363e-08
2.51317e-08
2.43959e-08
2.50449e-08
2.4579e-08
2.49924e-08
2.47783e-08
2.49342e-08
2.49357e-08
2.49692e-08
2.49926e-08
2.5033e-08
2.50531e-08
2.50227e-08
2.50808e-08
2.50942e-08
2.51349e-08
2.51233e-08
2.51473e-08
2.51908e-08
2.52028e-08
2.52704e-08
2.53289e-08
2.533e-08
2.54021e-08
2.54349e-08
2.5542e-08
2.56098e-08
2.56957e-08
2.56949e-08
2.58091e-08
2.58141e-08
2.58632e-08
2.58138e-08
2.58745e-08
2.59442e-08
2.60385e-08
2.6087e-08
2.61475e-08
2.61919e-08
2.62499e-08
2.62386e-08
2.63035e-08
2.62154e-08
2.63101e-08
2.64216e-08
2.63857e-08
2.63605e-08
2.65013e-08
2.67157e-08
2.67841e-08
2.66923e-08
2.65635e-08
2.66996e-08
2.65232e-08
2.61526e-08
2.64165e-08
2.60537e-08
2.6135e-08
2.59986e-08
2.59587e-08
2.62146e-08
2.64969e-08
2.69329e-08
2.71703e-08
2.76577e-08
2.75783e-08
2.71806e-08
2.71879e-08
2.71804e-08
2.71055e-08
2.69384e-08
2.6822e-08
2.67647e-08
2.66725e-08
2.67252e-08
2.66661e-08
2.66748e-08
2.65433e-08
2.64975e-08
2.63836e-08
2.62794e-08
2.61995e-08
2.61485e-08
2.60618e-08
2.60523e-08
2.59743e-08
2.59776e-08
2.59259e-08
2.59142e-08
2.58643e-08
2.58667e-08
2.58141e-08
2.57785e-08
2.56968e-08
2.5655e-08
2.55662e-08
2.55002e-08
2.54219e-08
2.53691e-08
2.52698e-08
2.52263e-08
2.51831e-08
2.51219e-08
2.50783e-08
2.50302e-08
2.50343e-08
2.49669e-08
2.49543e-08
2.49357e-08
2.48618e-08
2.49505e-08
2.47684e-08
2.50426e-08
2.4653e-08
2.50298e-08
2.4774e-08
2.47032e-08
2.51252e-08
2.42177e-08
2.54565e-08
2.37711e-08
2.58736e-08
2.33986e-08
2.60076e-08
2.32649e-08
2.6752e-08
2.20281e-08
2.83297e-08
2.42409e-08
2.39817e-08
3.39966e-08
2.55726e-08
4.12032e-08
4.32666e-08
9.66036e-08
1.07645e-07
2.85764e-07
7.89001e-07
1.21144e-06
2.28654e-06
3.77153e-06
6.38329e-06
1.00664e-05
1.2228e-05
1.29727e-05
1.33475e-05
1.10621e-05
6.41664e-06
2.55191e-06
5.68356e-07
1.10538e-07
8.53916e-08
1.18769e-07
1.20787e-07
1.00587e-07
9.17477e-08
1.08596e-07
1.63467e-07
1.87475e-07
1.39745e-07
8.53961e-08
7.21729e-08
6.58881e-08
5.25596e-08
5.42597e-08
6.09311e-08
8.6963e-08
7.68884e-08
5.53918e-08
7.07768e-08
5.30745e-08
5.45024e-08
5.01681e-08
5.54418e-08
5.68978e-08
5.09232e-08
5.55156e-08
5.45617e-08
6.44357e-08
5.98717e-08
5.18135e-08
5.03613e-08
4.72364e-08
4.51729e-08
4.45186e-08
4.36106e-08
4.04199e-08
3.87885e-08
3.93077e-08
3.90074e-08
3.87536e-08
3.82359e-08
3.86376e-08
4.05808e-08
4.13931e-08
4.21067e-08
4.13138e-08
4.4124e-08
4.84705e-08
4.92698e-08
4.79133e-08
4.2321e-08
5.0456e-08
4.09303e-08
7.98374e-08
6.51359e-08
8.021e-08
4.5043e-07
1.20158e-06
1.28782e-06
1.90907e-07
2.56811e-08
8.64467e-08
6.9007e-08
8.53923e-08
1.0305e-07
1.278e-07
1.88466e-07
5.74094e-07
2.17894e-06
4.77982e-06
6.84761e-06
7.54242e-06
8.38996e-06
9.71167e-06
1.0832e-05
1.00919e-05
7.51847e-06
4.59424e-06
2.48204e-06
1.10372e-06
1.50637e-07
6.92531e-08
1.3066e-07
5.49218e-08
2.02572e-08
3.12663e-08
3.42305e-08
1.58764e-08
3.95174e-08
1.76049e-08
2.72633e-08
2.78089e-08
1.9465e-08
3.19906e-08
1.9557e-08
2.90721e-08
2.25263e-08
2.59025e-08
2.46149e-08
2.46777e-08
2.5082e-08
2.46954e-08
2.48504e-08
2.50028e-08
2.46283e-08
2.50354e-08
2.47135e-08
2.49427e-08
2.47818e-08
2.49099e-08
2.48612e-08
2.49525e-08
2.49649e-08
2.50223e-08
2.50621e-08
2.50713e-08
2.50752e-08
2.51148e-08
2.51149e-08
2.51499e-08
2.51623e-08
2.51883e-08
2.52068e-08
2.52837e-08
2.53201e-08
2.53159e-08
2.53728e-08
2.5317e-08
2.54398e-08
2.5422e-08
2.55261e-08
2.55471e-08
2.56488e-08
2.56264e-08
2.56998e-08
2.57081e-08
2.57607e-08
2.5722e-08
2.57454e-08
2.58292e-08
2.59444e-08
2.60119e-08
2.61522e-08
2.62134e-08
2.61758e-08
2.62194e-08
2.62737e-08
2.62915e-08
2.63653e-08
2.6448e-08
2.64305e-08
2.64589e-08
2.65107e-08
2.66285e-08
2.67607e-08
2.66376e-08
2.6492e-08
2.65584e-08
2.65635e-08
2.62112e-08
2.62044e-08
2.58842e-08
2.61117e-08
2.59225e-08
2.58483e-08
2.62106e-08
2.65283e-08
2.68852e-08
2.72389e-08
2.74742e-08
2.74846e-08
2.7266e-08
2.74049e-08
2.73341e-08
2.72237e-08
2.70702e-08
2.69844e-08
2.69058e-08
2.68716e-08
2.68272e-08
2.66527e-08
2.6458e-08
2.64085e-08
2.63005e-08
2.62425e-08
2.62204e-08
2.62439e-08
2.62105e-08
2.61348e-08
2.60772e-08
2.59938e-08
2.59143e-08
2.587e-08
2.58374e-08
2.57703e-08
2.57426e-08
2.5664e-08
2.56535e-08
2.55325e-08
2.55358e-08
2.54534e-08
2.53908e-08
2.53845e-08
2.53215e-08
2.52568e-08
2.52256e-08
2.51997e-08
2.51613e-08
2.5186e-08
2.51362e-08
2.51231e-08
2.51312e-08
2.5126e-08
2.5057e-08
2.5051e-08
2.50349e-08
2.4971e-08
2.50152e-08
2.4877e-08
2.49496e-08
2.49282e-08
2.4714e-08
2.51619e-08
2.43203e-08
2.55914e-08
2.37513e-08
2.62239e-08
2.31109e-08
2.6819e-08
2.25151e-08
2.74565e-08
2.19944e-08
2.69797e-08
2.4495e-08
2.25967e-08
2.89353e-08
2.1947e-08
2.92778e-08
2.25827e-08
3.57141e-08
4.09741e-08
2.89236e-08
1.0768e-07
3.09878e-07
5.46979e-07
1.02721e-06
3.13186e-06
7.14058e-06
1.037e-05
1.2253e-05
1.37596e-05
1.20923e-05
7.20659e-06
2.93479e-06
7.33821e-07
1.32329e-07
7.71496e-08
8.22481e-08
8.07792e-08
7.819e-08
8.07824e-08
9.25367e-08
1.22799e-07
1.33911e-07
1.01224e-07
7.536e-08
6.8781e-08
6.52772e-08
6.03541e-08
6.03343e-08
6.56225e-08
7.71451e-08
6.68244e-08
5.84488e-08
6.54194e-08
5.38811e-08
5.41846e-08
5.00104e-08
5.48933e-08
5.78023e-08
4.93154e-08
5.09919e-08
5.05601e-08
6.09692e-08
5.65089e-08
5.29001e-08
4.79883e-08
4.53572e-08
4.48893e-08
4.4891e-08
4.35731e-08
3.90383e-08
3.81763e-08
3.89994e-08
3.96404e-08
3.88554e-08
3.84749e-08
3.85103e-08
3.88725e-08
3.93264e-08
4.06062e-08
4.06156e-08
4.32206e-08
4.68897e-08
4.89881e-08
4.56614e-08
4.20157e-08
4.45203e-08
4.03054e-08
6.18021e-08
6.1095e-08
5.38963e-08
1.89151e-07
6.68395e-07
8.66964e-07
1.72755e-07
4.81924e-08
8.68063e-08
8.91284e-08
1.14515e-07
1.30367e-07
1.35195e-07
2.01517e-07
6.19203e-07
2.11856e-06
4.43531e-06
6.29725e-06
6.8721e-06
7.38321e-06
8.47188e-06
9.30562e-06
8.147e-06
5.17477e-06
2.23511e-06
4.4902e-07
6.36351e-08
3.04969e-08
5.65387e-08
3.61172e-08
2.52451e-08
2.58564e-08
2.33145e-08
2.97377e-08
1.93209e-08
3.32376e-08
1.86049e-08
2.91581e-08
2.49878e-08
2.10662e-08
3.16767e-08
1.87297e-08
3.10966e-08
2.0806e-08
2.77875e-08
2.33155e-08
2.5749e-08
2.44659e-08
2.51816e-08
2.47378e-08
2.50612e-08
2.48652e-08
2.50003e-08
2.49465e-08
2.50065e-08
2.49927e-08
2.49861e-08
2.5017e-08
2.50296e-08
2.50537e-08
2.50642e-08
2.51184e-08
2.51195e-08
2.51148e-08
2.51684e-08
2.52165e-08
2.51781e-08
2.53269e-08
2.53159e-08
2.53097e-08
2.54151e-08
2.53823e-08
2.54028e-08
2.54818e-08
2.54076e-08
2.54888e-08
2.54646e-08
2.55743e-08
2.56299e-08
2.57022e-08
2.56927e-08
2.57884e-08
2.58948e-08
2.59917e-08
2.59284e-08
2.59048e-08
2.59308e-08
2.59686e-08
2.59835e-08
2.61474e-08
2.62097e-08
2.61691e-08
2.61729e-08
2.62579e-08
2.62878e-08
2.63612e-08
2.64172e-08
2.64575e-08
2.64244e-08
2.64689e-08
2.65258e-08
2.6709e-08
2.66821e-08
2.65953e-08
2.64155e-08
2.64338e-08
2.60168e-08
2.60268e-08
2.5807e-08
2.58895e-08
2.58688e-08
2.57748e-08
2.60969e-08
2.63226e-08
2.66409e-08
2.70309e-08
2.71322e-08
2.74143e-08
2.74497e-08
2.74309e-08
2.73126e-08
2.70048e-08
2.68881e-08
2.69051e-08
2.69368e-08
2.6863e-08
2.67052e-08
2.65401e-08