/*--------------------------------*- C++ -*----------------------------------*\
| =========                 |                                                 |
| \\      /  F ield         | OpenFOAM: The Open Source CFD Toolbox           |
|  \\    /   O peration     | Version:  v2006                                 |
|   \\  /    A nd           | Website:  www.openfoam.com                      |
|    \\/     M anipulation  |                                                 |
\*---------------------------------------------------------------------------*/
FoamFile
{
    version     2.0;
    format      ascii;
    class       volScalarField;
    location    "160";
    object      nuTilda;
}
// * * * * * * * * * * * * * * * * * * * * * * * * * * * * * * * * * * * * * //

dimensions      [0 2 -1 0 0 0 0];


internalField   nonuniform List<scalar> 
65536
(
2.92169e-06
1.97039e-06
2.08325e-06
2.32943e-06
2.31214e-06
2.22281e-06
2.21303e-06
2.19007e-06
2.09943e-06
1.99078e-06
1.80867e-06
1.4808e-06
1.40672e-06
1.32242e-06
1.25726e-06
1.15691e-06
9.96316e-07
8.57653e-07
8.77545e-07
9.81539e-07
1.00288e-06
9.38128e-07
8.54649e-07
8.70031e-07
9.34101e-07
9.09615e-07
9.49965e-07
9.80345e-07
9.50368e-07
8.90478e-07
7.70239e-07
7.15972e-07
7.43011e-07
8.53212e-07
1.04575e-06
1.18331e-06
1.34137e-06
1.57912e-06
2.27083e-06
3.13129e-06
4.55177e-06
5.86903e-06
6.97546e-06
7.92341e-06
8.70157e-06
9.42644e-06
1.00324e-05
1.05721e-05
1.10548e-05
1.14948e-05
1.1891e-05
1.22497e-05
1.25705e-05
1.28728e-05
1.3138e-05
1.33869e-05
1.3611e-05
1.38135e-05
1.39955e-05
1.41599e-05
1.43058e-05
1.44349e-05
1.45493e-05
1.46457e-05
1.47282e-05
1.47919e-05
1.48455e-05
1.4881e-05
1.49052e-05
1.49136e-05
1.49109e-05
1.48907e-05
1.48612e-05
1.48169e-05
1.47615e-05
1.46923e-05
1.46136e-05
1.45182e-05
1.44138e-05
1.42951e-05
1.41718e-05
1.40325e-05
1.38855e-05
1.37241e-05
1.35583e-05
1.33759e-05
1.31871e-05
1.29885e-05
1.27772e-05
1.25592e-05
1.23272e-05
1.20896e-05
1.18381e-05
1.15798e-05
1.13113e-05
1.10376e-05
1.07466e-05
1.04579e-05
1.0153e-05
9.85014e-06
9.53009e-06
9.21443e-06
8.88139e-06
8.54856e-06
8.20083e-06
7.85293e-06
7.48818e-06
7.12608e-06
6.74801e-06
6.37409e-06
5.99139e-06
5.60818e-06
5.21638e-06
4.80738e-06
4.39018e-06
3.93213e-06
3.47806e-06
2.96934e-06
2.47394e-06
1.91541e-06
1.45654e-06
1.0065e-06
7.24535e-07
4.99653e-07
3.89802e-07
2.90466e-07
2.54947e-07
1.88023e-07
2.35386e-07
3.04766e-07
3.71681e-07
4.7302e-07
5.95882e-07
8.42032e-07
1.1316e-06
1.61227e-06
2.11993e-06
2.73024e-06
3.2778e-06
3.84172e-06
4.32776e-06
4.81873e-06
5.24925e-06
5.68796e-06
6.08299e-06
6.48988e-06
6.86845e-06
7.25194e-06
7.62208e-06
7.99065e-06
8.35064e-06
8.70782e-06
9.05696e-06
9.40222e-06
9.73881e-06
1.00685e-05
1.03916e-05
1.07077e-05
1.10156e-05
1.13144e-05
1.16101e-05
1.18911e-05
1.21669e-05
1.24312e-05
1.26902e-05
1.29366e-05
1.31741e-05
1.34022e-05
1.36205e-05
1.38268e-05
1.40233e-05
1.42139e-05
1.43851e-05
1.45557e-05
1.47058e-05
1.48547e-05
1.49799e-05
1.5107e-05
1.52136e-05
1.53164e-05
1.53974e-05
1.54753e-05
1.55316e-05
1.55859e-05
1.56165e-05
1.56465e-05
1.56502e-05
1.56537e-05
1.56271e-05
1.56071e-05
1.55476e-05
1.55047e-05
1.54127e-05
1.53398e-05
1.52129e-05
1.51061e-05
1.49501e-05
1.48083e-05
1.46163e-05
1.44348e-05
1.41982e-05
1.39731e-05
1.3695e-05
1.34131e-05
1.30799e-05
1.27342e-05
1.23257e-05
1.18938e-05
1.13833e-05
1.08233e-05
1.01085e-05
9.56914e-06
7.88644e-06
4.22681e-06
1.81483e-06
8.61565e-07
5.14182e-07
4.7151e-07
5.31956e-07
5.40386e-07
5.66988e-07
5.51514e-07
7.36465e-07
9.47443e-07
1.08697e-06
1.21971e-06
1.34015e-06
1.48923e-06
1.66369e-06
1.82275e-06
2.04328e-06
2.22321e-06
1.92132e-06
1.47602e-06
1.43245e-06
1.35323e-06
1.31087e-06
1.467e-06
1.91822e-06
3.30779e-06
4.86024e-06
6.3657e-06
7.5067e-06
7.8449e-06
7.88321e-06
7.65216e-06
7.48856e-06
7.2119e-06
6.89549e-06
6.44434e-06
5.79974e-06
5.22337e-06
4.67345e-06
4.29664e-06
3.86193e-06
3.32861e-06
8.13149e-07
6.82044e-07
6.59663e-07
6.78836e-07
8.16517e-07
6.87389e-07
9.87978e-07
1.05434e-06
1.20337e-06
1.42432e-06
1.8113e-06
2.03452e-06
2.1977e-06
2.2921e-06
2.249e-06
2.18417e-06
2.13892e-06
2.04682e-06
2.03826e-06
2.09997e-06
2.12503e-06
2.1207e-06
1.81297e-06
1.70862e-06
1.60397e-06
1.5021e-06
1.51949e-06
1.48955e-06
1.44144e-06
1.35823e-06
1.32455e-06
1.47255e-06
1.71333e-06
2.24142e-06
2.75133e-06
3.15452e-06
3.30329e-06
3.68683e-06
4.6449e-06
6.31518e-06
8.02757e-06
9.1838e-06
1.01793e-05
1.07802e-05
1.09853e-05
1.14119e-05
1.15814e-05
1.16683e-05
1.18036e-05
1.18652e-05
1.19668e-05
1.20065e-05
1.20427e-05
1.20895e-05
1.20957e-05
1.21061e-05
1.21091e-05
1.20897e-05
1.20729e-05
1.20397e-05
1.19981e-05
1.1955e-05
1.18944e-05
1.18342e-05
1.17606e-05
1.168e-05
1.15936e-05
1.14959e-05
1.13917e-05
1.12814e-05
1.11617e-05
1.10359e-05
1.09032e-05
1.07637e-05
1.06152e-05
1.0463e-05
1.03025e-05
1.01339e-05
9.96302e-06
9.78571e-06
9.60154e-06
9.41241e-06
9.21711e-06
9.01265e-06
8.81348e-06
8.59266e-06
8.37927e-06
8.1541e-06
7.92201e-06
7.68727e-06
7.44594e-06
7.19322e-06
6.94443e-06
6.67435e-06
6.41563e-06
6.13059e-06
5.85619e-06
5.5664e-06
5.27801e-06
4.97703e-06
4.68156e-06
4.37105e-06
4.06579e-06
3.74769e-06
3.4451e-06
3.12098e-06
2.82129e-06
2.51326e-06
2.22995e-06
1.93854e-06
1.68806e-06
1.42853e-06
1.20203e-06
9.78862e-07
7.97813e-07
6.25309e-07
5.14561e-07
4.07371e-07
3.42002e-07
2.94764e-07
2.80855e-07
2.82665e-07
2.88437e-07
3.02732e-07
3.06092e-07
3.26983e-07
3.27806e-07
3.36084e-07
3.36487e-07
3.27719e-07
3.22698e-07
3.10347e-07
3.02866e-07
2.91367e-07
2.89423e-07
2.9237e-07
3.06292e-07
3.58556e-07
4.25321e-07
5.54526e-07
6.87924e-07
8.91635e-07
1.08752e-06
1.34174e-06
1.57149e-06
1.86599e-06
2.12932e-06
2.44142e-06
2.73288e-06
3.05895e-06
3.35884e-06
3.69563e-06
4.00156e-06
4.33468e-06
4.6408e-06
4.96738e-06
5.25991e-06
5.57724e-06
5.86182e-06
6.16124e-06
6.43379e-06
6.72243e-06
6.98106e-06
7.25195e-06
7.49612e-06
7.7571e-06
7.98446e-06
8.23009e-06
8.4509e-06
8.67985e-06
8.88662e-06
9.10942e-06
9.30121e-06
9.50983e-06
9.69565e-06
9.89152e-06
1.00652e-05
1.02468e-05
1.04106e-05
1.05795e-05
1.0734e-05
1.08885e-05
1.10275e-05
1.11694e-05
1.12935e-05
1.14186e-05
1.15318e-05
1.16411e-05
1.17351e-05
1.18336e-05
1.1908e-05
1.19928e-05
1.20508e-05
1.2113e-05
1.21547e-05
1.21927e-05
1.2226e-05
1.22442e-05
1.22529e-05
1.22497e-05
1.22323e-05
1.2204e-05
1.21723e-05
1.20936e-05
1.20473e-05
1.19296e-05
1.18318e-05
1.16563e-05
1.15044e-05
1.11614e-05
1.08942e-05
1.07665e-05
8.54995e-06
5.81634e-06
4.38556e-06
3.14866e-06
2.36254e-06
2.26798e-06
2.19909e-06
2.10275e-06
2.08943e-06
2.01667e-06
1.88632e-06
1.68852e-06
1.65246e-06
1.90059e-06
2.0964e-06
2.17521e-06
2.43838e-06
2.70234e-06
2.85729e-06
2.69346e-06
2.4157e-06
2.3207e-06
2.27181e-06
2.37966e-06
2.51635e-06
2.98473e-06
3.53163e-06
4.15119e-06
4.50821e-06
4.62088e-06
4.30595e-06
3.46162e-06
2.68991e-06
1.99331e-06
1.59379e-06
1.31716e-06
1.55587e-06
1.60485e-06
1.3425e-06
1.32932e-06
1.43962e-06
1.51938e-06
1.45553e-06
1.16826e-06
3.99275e-07
3.96205e-07
4.13821e-07
4.32578e-07
4.58845e-07
4.26962e-07
5.11565e-07
5.469e-07
5.12052e-07
6.42139e-07
8.62728e-07
1.203e-06
1.68431e-06
2.15172e-06
2.41447e-06
2.52281e-06
2.63673e-06
2.65899e-06
2.68618e-06
2.81417e-06
3.18099e-06
3.40767e-06
2.97387e-06
2.53479e-06
1.98867e-06
1.44175e-06
1.44081e-06
1.40239e-06
1.28162e-06
1.00435e-06
8.05663e-07
1.01051e-06
1.63606e-06
2.90203e-06
4.09237e-06
4.39255e-06
4.38444e-06
4.82987e-06
6.40517e-06
8.60411e-06
1.02927e-05
1.14127e-05
1.24235e-05
1.25915e-05
1.24754e-05
1.28345e-05
1.26098e-05
1.23995e-05
1.23112e-05
1.20969e-05
1.19746e-05
1.17796e-05
1.15923e-05
1.14355e-05
1.12283e-05
1.10403e-05
1.08554e-05
1.06389e-05
1.0446e-05
1.02273e-05
1.00157e-05
9.80473e-06
9.58032e-06
9.36593e-06
9.13412e-06
8.9058e-06
8.66884e-06
8.42553e-06
8.18091e-06
7.92568e-06
7.67298e-06
7.40609e-06
7.14467e-06
6.86632e-06
6.59002e-06
6.3061e-06
6.01874e-06
5.72869e-06
5.43603e-06
5.14376e-06
4.84802e-06
4.55455e-06
4.25975e-06
3.96665e-06
3.68648e-06
3.39637e-06
3.12739e-06
2.85343e-06
2.59638e-06
2.3452e-06
2.09981e-06
1.87437e-06
1.66424e-06
1.44672e-06
1.27963e-06
1.08983e-06
9.44722e-07
7.95132e-07
6.79711e-07
5.54575e-07
4.87234e-07
3.8477e-07
3.33533e-07
2.75094e-07
2.48724e-07
2.07791e-07
2.09544e-07
1.87986e-07
2.13551e-07
2.04883e-07
2.38099e-07
2.48624e-07
2.73517e-07
2.93629e-07
3.11666e-07
3.32494e-07
3.44899e-07
3.59118e-07
3.64858e-07
3.70121e-07
3.70627e-07
3.69182e-07
3.65454e-07
3.62141e-07
3.58376e-07
3.55274e-07
3.55038e-07
3.52787e-07
3.50382e-07
3.55319e-07
3.57279e-07
3.61195e-07
3.63663e-07
3.66977e-07
3.69237e-07
3.71316e-07
3.71593e-07
3.66771e-07
3.61075e-07
3.45221e-07
3.32404e-07
3.11462e-07
2.90781e-07
2.76052e-07
2.47462e-07
2.47162e-07
2.13669e-07
2.2484e-07
2.08537e-07
2.3373e-07
2.29966e-07
2.83254e-07
3.02842e-07
3.79143e-07
4.27124e-07
5.39012e-07
6.11018e-07
7.53428e-07
8.60358e-07
1.03875e-06
1.16992e-06
1.38502e-06
1.5574e-06
1.78406e-06
1.99383e-06
2.24767e-06
2.4762e-06
2.75512e-06
3.01063e-06
3.30323e-06
3.5707e-06
3.88177e-06
4.15957e-06
4.47301e-06
4.76169e-06
5.08237e-06
5.3676e-06
5.68597e-06
5.97409e-06
6.28142e-06
6.5697e-06
6.86518e-06
7.14563e-06
7.43101e-06
7.69578e-06
7.97103e-06
8.22335e-06
8.49127e-06
8.72968e-06
8.98745e-06
9.21882e-06
9.4629e-06
9.68951e-06
9.91403e-06
1.0137e-05
1.03471e-05
1.05719e-05
1.07815e-05
1.09866e-05
1.11953e-05
1.13853e-05
1.15708e-05
1.17866e-05
1.19179e-05
1.21473e-05
1.22764e-05
1.24646e-05
1.2562e-05
1.27468e-05
1.27097e-05
1.27463e-05
1.31228e-05
1.14035e-05
8.59023e-06
6.83615e-06
5.36756e-06
4.04104e-06
3.43489e-06
3.07823e-06
2.72924e-06
2.59426e-06
2.69224e-06
2.54625e-06
2.24622e-06
2.33677e-06
2.41494e-06
2.4406e-06
2.52e-06
2.98293e-06
3.46538e-06
3.64637e-06
3.19796e-06
2.61583e-06
2.40082e-06
2.33166e-06
2.09494e-06
1.87262e-06
2.46012e-06
2.82839e-06
2.88987e-06
2.66872e-06
2.42513e-06
2.04648e-06
1.26334e-06
8.14824e-07
5.44194e-07
4.27055e-07
3.40362e-07
3.43392e-07
3.92844e-07
3.90229e-07
3.96351e-07
4.09869e-07
4.52852e-07
4.93861e-07
4.6238e-07
4.26048e-07
4.15763e-07
4.19696e-07
4.34291e-07
4.31055e-07
4.3107e-07
4.46433e-07
4.55262e-07
4.29862e-07
4.47984e-07
4.93754e-07
6.45381e-07
9.28614e-07
1.27027e-06
1.55388e-06
1.85556e-06
2.0934e-06
2.21566e-06
2.14276e-06
2.36671e-06
3.16296e-06
3.80931e-06
3.55573e-06
2.81853e-06
1.48478e-06
5.84342e-07
3.22955e-07
3.51565e-07
1.94421e-07
3.69918e-07
1.81086e-07
2.19126e-07
9.58073e-07
2.90773e-06
4.81972e-06
5.32324e-06
5.33518e-06
6.22908e-06
8.21041e-06
1.05402e-05
1.20023e-05
1.28461e-05
1.33804e-05
1.29368e-05
1.25413e-05
1.25894e-05
1.18934e-05
1.14082e-05
1.1078e-05
1.05665e-05
1.02028e-05
9.79002e-06
9.36657e-06
9.00476e-06
8.58748e-06
8.201e-06
7.81749e-06
7.40404e-06
7.02144e-06
6.60651e-06
6.21158e-06
5.82155e-06
5.42715e-06
5.05118e-06
4.66367e-06
4.29546e-06
3.9295e-06
3.57311e-06
3.24115e-06
2.90446e-06
2.61152e-06
2.31281e-06
2.05792e-06
1.79736e-06
1.57273e-06
1.36203e-06
1.16945e-06
1.00749e-06
8.49854e-07
7.34849e-07
6.08675e-07
5.26496e-07
4.42803e-07
3.79252e-07
3.36419e-07
2.87653e-07
2.79871e-07
2.39318e-07
2.50179e-07
2.40613e-07
2.43338e-07
2.51934e-07
2.72198e-07
2.68843e-07
3.01591e-07
3.04552e-07
3.25724e-07
3.37983e-07
3.53667e-07
3.64227e-07
3.7209e-07
3.82534e-07
3.88214e-07
3.9136e-07
3.9232e-07
3.95438e-07
3.90232e-07
3.9466e-07
3.8078e-07
3.87542e-07
3.73602e-07
3.75312e-07
3.67705e-07
3.64384e-07
3.60531e-07
3.5651e-07
3.54834e-07
3.52338e-07
3.52373e-07
3.52179e-07
3.53551e-07
3.5417e-07
3.55009e-07
3.56181e-07
3.56641e-07
3.55226e-07
3.58045e-07
3.57764e-07
3.57253e-07
3.58743e-07
3.57932e-07
3.57919e-07
3.59718e-07
3.60086e-07
3.5856e-07
3.57604e-07
3.56097e-07
3.55348e-07
3.54663e-07
3.56483e-07
3.57079e-07
3.60524e-07
3.63921e-07
3.65516e-07
3.7477e-07
3.70152e-07
3.84813e-07
3.80214e-07
3.88811e-07
3.87117e-07
3.92473e-07
3.8846e-07
3.89303e-07
3.85066e-07
3.79647e-07
3.7259e-07
3.62621e-07
3.55208e-07
3.38839e-07
3.31491e-07
3.09092e-07
3.05323e-07
2.82544e-07
2.74482e-07
2.6688e-07
2.59673e-07
2.52556e-07
2.69066e-07
2.63122e-07
3.01994e-07
3.1064e-07
3.71498e-07
4.12497e-07
4.81106e-07
5.65786e-07
6.72627e-07
7.70713e-07
9.27445e-07
1.06511e-06
1.26148e-06
1.43766e-06
1.67315e-06
1.90405e-06
2.17416e-06
2.44595e-06
2.75486e-06
3.06554e-06
3.42188e-06
3.76736e-06
4.15228e-06
4.53791e-06
4.93208e-06
5.34541e-06
5.75149e-06
6.17842e-06
6.59275e-06
7.03228e-06
7.46011e-06
7.88822e-06
8.32833e-06
8.75612e-06
9.16494e-06
9.64753e-06
1.00166e-05
1.05262e-05
1.09411e-05
1.14399e-05
1.18551e-05
1.24065e-05
1.28097e-05
1.3152e-05
1.41091e-05
1.34297e-05
1.09696e-05
9.0573e-06
7.37705e-06
5.54977e-06
4.3141e-06
3.37217e-06
2.41986e-06
2.09171e-06
2.48738e-06
2.66741e-06
2.46108e-06
2.31532e-06
2.02405e-06
1.76917e-06
1.93417e-06
2.54459e-06
3.01105e-06
3.04929e-06
2.34825e-06
1.53182e-06
1.15668e-06
1.2045e-06
7.15042e-07
7.91293e-07
1.10721e-06
1.49199e-06
1.38921e-06
1.23207e-06
1.05255e-06
9.45516e-07
5.89672e-07
4.7856e-07
4.53748e-07
4.55826e-07
4.77773e-07
4.96196e-07
4.92576e-07
4.7967e-07
4.62281e-07
4.5349e-07
4.2794e-07
4.21879e-07
4.23546e-07
4.14925e-07
4.01911e-07
3.97985e-07
4.06529e-07
4.15091e-07
4.18554e-07
4.24874e-07
4.32169e-07
4.32612e-07
4.17003e-07
4.20776e-07
4.82726e-07
5.84619e-07
7.26762e-07
8.4436e-07
1.02194e-06
1.16947e-06
1.29248e-06
1.27524e-06
1.41664e-06
2.47279e-06
3.58215e-06
3.66234e-06
2.81299e-06
9.94187e-07
1.85948e-07
4.47851e-07
5.40693e-07
4.72229e-07
5.14242e-07
5.72647e-07
5.51029e-07
6.8944e-07
2.51234e-06
5.12098e-06
6.04782e-06
6.21422e-06
7.52172e-06
9.64687e-06
1.18725e-05
1.3025e-05
1.33981e-05
1.32053e-05
1.21717e-05
1.14781e-05
1.10246e-05
9.86686e-06
9.1104e-06
8.48516e-06
7.6306e-06
7.00679e-06
6.34276e-06
5.6609e-06
5.09815e-06
4.49877e-06
3.9834e-06
3.49145e-06
3.02999e-06
2.6287e-06
2.22945e-06
1.90656e-06
1.62848e-06
1.37262e-06
1.17017e-06
9.76221e-07
8.39073e-07
7.05509e-07
6.02736e-07
5.35628e-07
4.56685e-07
4.28978e-07
3.8179e-07
3.70377e-07
3.45945e-07
3.45639e-07
3.36439e-07
3.39543e-07
3.43772e-07
3.42386e-07
3.54221e-07
3.53195e-07
3.61573e-07
3.63883e-07
3.67642e-07
3.70629e-07
3.69787e-07
3.72615e-07
3.70906e-07
3.70896e-07
3.66861e-07
3.68212e-07
3.62931e-07
3.59821e-07
3.60552e-07
3.53557e-07
3.53745e-07
3.50741e-07
3.4938e-07
3.46789e-07
3.46295e-07
3.45752e-07
3.44815e-07
3.4451e-07
3.4526e-07
3.45953e-07
3.46176e-07
3.47919e-07
3.47553e-07
3.52328e-07
3.49901e-07
3.55167e-07
3.53788e-07
3.57258e-07
3.57757e-07
3.5917e-07
3.60378e-07
3.60842e-07
3.61231e-07
3.60795e-07
3.61152e-07
3.61242e-07
3.61659e-07
3.60956e-07
3.60268e-07
3.60752e-07
3.58723e-07
3.58473e-07
3.58235e-07
3.57179e-07
3.58922e-07
3.58649e-07
3.61458e-07
3.63308e-07
3.6425e-07
3.64261e-07
3.64205e-07
3.64129e-07
3.63787e-07
3.63453e-07
3.62891e-07
3.63195e-07
3.61782e-07
3.60475e-07
3.60344e-07
3.56675e-07
3.58968e-07
3.5341e-07
3.5452e-07
3.51408e-07
3.50263e-07
3.48421e-07
3.47695e-07
3.46523e-07
3.45345e-07
3.45763e-07
3.4509e-07
3.46932e-07
3.45848e-07
3.49099e-07
3.48636e-07
3.52779e-07
3.52397e-07
3.56681e-07
3.59248e-07
3.59218e-07
3.64169e-07
3.64421e-07
3.67331e-07
3.65914e-07
3.70219e-07
3.65033e-07
3.68419e-07
3.6313e-07
3.62634e-07
3.59833e-07
3.53839e-07
3.53345e-07
3.49037e-07
3.4472e-07
3.50302e-07
3.43264e-07
3.58572e-07
3.63143e-07
3.86558e-07
4.08148e-07
4.53374e-07
4.95678e-07
5.75056e-07
6.58098e-07
7.71535e-07
9.19079e-07
1.07626e-06
1.29173e-06
1.52305e-06
1.81342e-06
2.12828e-06
2.51325e-06
2.92748e-06
3.40042e-06
3.92523e-06
4.50357e-06
5.0839e-06
5.8046e-06
6.43547e-06
7.24223e-06
7.98959e-06
8.84224e-06
9.63562e-06
1.05874e-05
1.15221e-05
1.2254e-05
1.37573e-05
1.42784e-05
1.26501e-05
1.09083e-05
9.26728e-06
6.89991e-06
4.88932e-06
3.0441e-06
1.37373e-06
9.39938e-07
1.52031e-06
2.0023e-06
1.91722e-06
1.6437e-06
1.25239e-06
1.02376e-06
1.26264e-06
1.71964e-06
2.00828e-06
1.88738e-06
1.12806e-06
5.82746e-07
3.76913e-07
4.63911e-07
2.72191e-07
4.89633e-07
6.67989e-07
7.81489e-07
7.07679e-07
6.56389e-07
5.77732e-07
5.77969e-07
4.63659e-07
4.55522e-07
4.46092e-07
4.42356e-07
4.75955e-07
4.74981e-07
4.62535e-07
4.58275e-07
4.36564e-07
4.39827e-07
4.30262e-07
4.27493e-07
4.21687e-07
4.14709e-07
4.03061e-07
3.98473e-07
3.99365e-07
4.07557e-07
4.12789e-07
4.17144e-07
4.21102e-07
4.26414e-07
4.13131e-07
4.09436e-07
4.37292e-07
4.75859e-07
5.22871e-07
5.45701e-07
6.0104e-07
6.6743e-07
7.18726e-07
8.06934e-07
7.94863e-07
1.61038e-06
2.88001e-06
3.3299e-06
2.61927e-06
7.78602e-07
3.42179e-08
5.10934e-07
4.68735e-07
4.47842e-07
4.64484e-07
5.05387e-07
6.77132e-07
8.94481e-07
2.34992e-06
5.2423e-06
6.62732e-06
6.99719e-06
8.50129e-06
1.05539e-05
1.25387e-05
1.32915e-05
1.30158e-05
1.19984e-05
1.04491e-05
9.39409e-06
8.33201e-06
6.74674e-06
5.70439e-06
4.81507e-06
3.80623e-06
3.20038e-06
2.57973e-06
2.01414e-06
1.68786e-06
1.33074e-06
1.08918e-06
8.93098e-07
7.46977e-07
6.37072e-07
5.30684e-07
4.84355e-07
4.3582e-07
4.10921e-07
3.86105e-07
3.68944e-07
3.70427e-07
3.55281e-07
3.55054e-07
3.59624e-07
3.4731e-07
3.61827e-07
3.47338e-07
3.6137e-07
3.49189e-07
3.5998e-07
3.51333e-07
3.57479e-07
3.5325e-07
3.55137e-07
3.53549e-07
3.54062e-07
3.52974e-07
3.53202e-07
3.52673e-07
3.52976e-07
3.5298e-07
3.53338e-07
3.53481e-07
3.54175e-07
3.54916e-07
3.54887e-07
3.56316e-07
3.56885e-07
3.56911e-07
3.5821e-07
3.58431e-07
3.58839e-07
3.59534e-07
3.60102e-07
3.60307e-07
3.60377e-07
3.60319e-07
3.60655e-07
3.60333e-07
3.60551e-07
3.6041e-07
3.60277e-07
3.60406e-07
3.59077e-07
3.6006e-07
3.58344e-07
3.59201e-07
3.58305e-07
3.58814e-07
3.58476e-07
3.58669e-07
3.59138e-07
3.59275e-07
3.59415e-07
3.59376e-07
3.59677e-07
3.5972e-07
3.59705e-07
3.59024e-07
3.5966e-07
3.58925e-07
3.58304e-07
3.58759e-07
3.57766e-07
3.58949e-07
3.58959e-07
3.60679e-07
3.61899e-07
3.62508e-07
3.62539e-07
3.62695e-07
3.62338e-07
3.61788e-07
3.61285e-07
3.61052e-07
3.60603e-07
3.60633e-07
3.60771e-07
3.60203e-07
3.60988e-07
3.59683e-07
3.61038e-07
3.60176e-07
3.60546e-07
3.60752e-07
3.6096e-07
3.61252e-07
3.61446e-07
3.61614e-07
3.61474e-07
3.61578e-07
3.6139e-07
3.61422e-07
3.60846e-07
3.60739e-07
3.59822e-07
3.59917e-07
3.58736e-07
3.58294e-07
3.57919e-07
3.57043e-07
3.56013e-07
3.55788e-07
3.54839e-07
3.54647e-07
3.53993e-07
3.54022e-07
3.53406e-07
3.5373e-07
3.53517e-07
3.53632e-07
3.53967e-07
3.53833e-07
3.53968e-07
3.54751e-07
3.54024e-07
3.54442e-07
3.54858e-07
3.5388e-07
3.53676e-07
3.56305e-07
3.51326e-07
3.59386e-07
3.55649e-07
3.65119e-07
3.67523e-07
3.86928e-07
3.96956e-07
4.30116e-07
4.75119e-07
5.19396e-07
6.14194e-07
7.18698e-07
8.6133e-07
1.0654e-06
1.34097e-06
1.62575e-06
2.13527e-06
2.5921e-06
3.29317e-06
4.08664e-06
5.07235e-06
6.11935e-06
7.43185e-06
8.94478e-06
1.01864e-05
1.22016e-05
1.39241e-05
1.34627e-05
1.22619e-05
1.09872e-05
8.33488e-06
5.32207e-06
2.63601e-06
9.83019e-07
5.68752e-07
7.92151e-07
1.18758e-06
1.19863e-06
9.86042e-07
7.51237e-07
6.90586e-07
8.73279e-07
1.08333e-06
1.14253e-06
9.48463e-07
5.29315e-07
4.29323e-07
3.75211e-07
4.0779e-07
3.76325e-07
5.10348e-07
5.63942e-07
5.2169e-07
5.1838e-07
4.93246e-07
4.6801e-07
4.77315e-07
4.49904e-07
4.55407e-07
4.47231e-07
4.54208e-07
4.70218e-07
4.75536e-07
4.6344e-07
4.48878e-07
4.3409e-07
4.30168e-07
4.24478e-07
4.2762e-07
4.23615e-07
4.08164e-07
4.03033e-07
4.00078e-07
3.97808e-07
4.02491e-07
4.06276e-07
4.11419e-07
4.14752e-07
4.19771e-07
4.14838e-07
4.10003e-07
4.23235e-07
4.42166e-07
4.5275e-07
4.5243e-07
4.59877e-07
5.06543e-07
4.98e-07
6.2474e-07
5.55702e-07
9.70952e-07
2.01731e-06
2.72091e-06
2.29218e-06
6.82194e-07
1.07715e-07
5.24376e-07
4.48141e-07
4.4911e-07
4.61062e-07
4.77161e-07
6.10046e-07
9.54821e-07
2.26614e-06
5.1423e-06
6.97276e-06
7.55453e-06
9.00224e-06
1.08491e-05
1.25507e-05
1.28434e-05
1.17962e-05
9.95798e-06
7.96701e-06
6.49659e-06
4.91426e-06
3.23276e-06
2.41002e-06
1.89093e-06
1.28949e-06
1.05735e-06
8.02994e-07
5.96674e-07
5.9354e-07
4.57219e-07
4.26246e-07
4.13285e-07
3.78165e-07
3.76928e-07
3.61087e-07
3.61683e-07
3.55806e-07
3.58399e-07
3.56076e-07
3.52097e-07
3.59794e-07
3.52439e-07
3.55824e-07
3.57485e-07
3.52096e-07
3.59342e-07
3.51723e-07
3.5846e-07
3.5294e-07
3.57235e-07
3.54176e-07
3.56276e-07
3.55145e-07
3.55807e-07
3.55549e-07
3.55888e-07
3.55732e-07
3.55844e-07
3.56023e-07
3.56038e-07
3.56102e-07
3.56309e-07
3.56254e-07
3.56102e-07
3.56097e-07
3.55963e-07
3.55861e-07
3.55855e-07
3.56094e-07
3.56023e-07
3.56175e-07
3.56183e-07
3.56158e-07
3.56004e-07
3.56152e-07
3.56286e-07
3.56519e-07
3.56596e-07
3.56797e-07
3.57168e-07
3.57468e-07
3.57802e-07
3.57892e-07
3.58495e-07
3.58373e-07
3.59256e-07
3.58919e-07
3.59244e-07
3.59402e-07
3.59803e-07
3.59685e-07
3.59818e-07
3.60342e-07
3.60461e-07
3.60662e-07
3.60418e-07
3.60734e-07
3.60764e-07
3.5946e-07
3.59167e-07
3.5928e-07
3.57918e-07
3.58225e-07
3.57568e-07
3.58179e-07
3.5888e-07
3.60658e-07
3.61777e-07
3.62504e-07
3.63548e-07
3.6376e-07
3.63053e-07
3.62733e-07
3.62628e-07
3.62321e-07
3.62364e-07
3.6216e-07
3.61405e-07
3.61279e-07
3.60653e-07
3.60657e-07
3.59811e-07
3.59902e-07
3.59605e-07
3.59222e-07
3.58825e-07
3.58471e-07
3.58139e-07
3.57911e-07
3.57708e-07
3.57548e-07
3.57416e-07
3.57109e-07
3.56883e-07
3.5673e-07
3.56636e-07
3.56513e-07
3.56529e-07
3.56781e-07
3.56718e-07
3.56802e-07
3.56702e-07
3.5682e-07
3.56731e-07
3.56866e-07
3.56836e-07
3.56867e-07
3.56964e-07
3.56784e-07
3.56686e-07
3.56654e-07
3.56386e-07
3.56076e-07
3.56443e-07
3.55585e-07
3.5675e-07
3.54773e-07
3.57464e-07
3.54163e-07
3.57072e-07
3.55424e-07
3.54816e-07
3.5752e-07
3.5309e-07
3.58946e-07
3.51445e-07
3.61669e-07
3.51219e-07
3.61314e-07
3.60458e-07
3.64161e-07
3.67692e-07
3.93403e-07
3.94028e-07
4.27028e-07
5.02083e-07
5.19503e-07
6.88492e-07
8.26371e-07
1.077e-06
1.41346e-06
2.0432e-06
2.75036e-06
3.78199e-06
5.47792e-06
7.16493e-06
9.64892e-06
1.24735e-05
1.33264e-05
1.29875e-05
1.2395e-05
9.75731e-06
5.75921e-06
2.45418e-06
8.89355e-07
5.22556e-07
5.61103e-07
7.34322e-07
7.48736e-07
6.47743e-07
5.68405e-07
5.86594e-07
7.0378e-07
7.8233e-07
7.25316e-07
5.69174e-07
4.58951e-07
4.8092e-07
4.43661e-07
4.28144e-07
4.27395e-07
5.0937e-07
5.1438e-07
4.48311e-07
4.81593e-07
4.50836e-07
4.49189e-07
4.44485e-07
4.5002e-07
4.5317e-07
4.42525e-07
4.53481e-07
4.59762e-07
4.70978e-07
4.5911e-07
4.37189e-07
4.34548e-07
4.28418e-07
4.22361e-07
4.23339e-07
4.17262e-07
4.05419e-07
4.02228e-07
4.01219e-07
4.00132e-07
4.00824e-07
4.01657e-07
4.05647e-07
4.08852e-07
4.12151e-07
4.14027e-07
4.12286e-07
4.18584e-07
4.29137e-07
4.29196e-07
4.2908e-07
4.2086e-07
4.54589e-07
4.23356e-07
5.34299e-07
4.80709e-07
6.35875e-07
1.31086e-06
2.03405e-06
1.90336e-06
6.62721e-07
2.63501e-07
5.10176e-07
4.49928e-07
4.9188e-07
5.50028e-07
5.73235e-07
6.18607e-07
9.97278e-07
2.35379e-06
5.05293e-06
7.08296e-06
7.77252e-06
8.96709e-06
1.0551e-05
1.19518e-05
1.1715e-05
9.8391e-06
7.32007e-06
5.11753e-06
3.4873e-06
1.96844e-06
1.02735e-06
9.30897e-07
7.82032e-07
4.79229e-07
4.69671e-07
4.4102e-07
3.45187e-07
4.21238e-07
3.40956e-07
3.59849e-07
3.72597e-07
3.39783e-07
3.69425e-07
3.4661e-07
3.59373e-07
3.54039e-07
3.53923e-07
3.58267e-07
3.51193e-07
3.58955e-07
3.5326e-07
3.55999e-07
3.56443e-07
3.54276e-07
3.57372e-07
3.54494e-07
3.57038e-07
3.55132e-07
3.56702e-07
3.55707e-07
3.56352e-07
3.56177e-07
3.5633e-07
3.56414e-07
3.56498e-07
3.56592e-07
3.56488e-07
3.5657e-07
3.56669e-07
3.56746e-07
3.56742e-07
3.56766e-07
3.56815e-07
3.568e-07
3.56936e-07
3.57111e-07
3.57065e-07
3.5717e-07
3.57123e-07
3.57256e-07
3.57412e-07
3.57651e-07
3.57695e-07
3.5799e-07
3.57968e-07
3.58147e-07
3.58101e-07
3.58263e-07
3.58205e-07
3.58336e-07
3.58507e-07
3.58641e-07
3.58657e-07
3.5893e-07
3.59032e-07
3.59302e-07
3.58974e-07
3.59089e-07
3.59393e-07
3.59501e-07
3.59516e-07
3.59833e-07
3.60204e-07
3.60288e-07
3.60144e-07
3.59919e-07
3.60157e-07
3.59304e-07
3.58495e-07
3.58963e-07
3.57532e-07
3.5812e-07
3.57383e-07
3.58118e-07
3.58803e-07
3.59805e-07
3.60904e-07
3.61891e-07
3.63539e-07
3.63172e-07
3.62441e-07
3.62287e-07
3.62303e-07
3.61993e-07
3.61675e-07
3.61223e-07
3.61115e-07
3.60808e-07
3.60932e-07
3.6054e-07
3.60697e-07
3.60211e-07
3.60028e-07
3.59787e-07
3.5961e-07
3.59409e-07
3.59345e-07
3.59068e-07
3.59152e-07
3.58903e-07
3.5898e-07
3.58814e-07
3.58841e-07
3.58724e-07
3.58754e-07
3.58583e-07
3.58532e-07
3.58321e-07
3.58289e-07
3.58049e-07
3.57968e-07
3.57785e-07
3.57737e-07
3.57481e-07
3.5744e-07
3.57337e-07
3.57257e-07
3.57109e-07
3.57074e-07
3.57054e-07
3.56941e-07
3.56934e-07
3.56906e-07
3.5659e-07
3.56982e-07
3.5627e-07
3.57405e-07
3.55793e-07
3.57288e-07
3.56288e-07
3.56043e-07
3.57584e-07
3.54261e-07
3.58869e-07
3.52423e-07
3.60367e-07
3.50958e-07
3.60949e-07
3.50471e-07
3.63606e-07
3.45479e-07
3.69074e-07
3.54153e-07
3.5308e-07
3.87182e-07
3.59134e-07
4.07881e-07
4.1324e-07
5.17345e-07
5.33889e-07
7.2949e-07
1.12334e-06
1.45005e-06
2.38729e-06
3.81237e-06
6.39788e-06
1.00723e-05
1.2232e-05
1.29762e-05
1.33508e-05
1.1067e-05
6.43111e-06
2.63571e-06
9.57858e-07
5.38208e-07
4.98866e-07
5.4884e-07
5.51473e-07
5.22416e-07
5.08697e-07
5.34186e-07
6.04805e-07
6.32088e-07
5.76127e-07
4.98517e-07
4.74507e-07
4.62761e-07
4.34806e-07
4.38834e-07
4.52957e-07
5.0085e-07
4.82993e-07
4.40527e-07
4.71754e-07
4.35541e-07
4.39334e-07
4.29565e-07
4.41825e-07
4.4517e-07
4.31835e-07
4.43238e-07
4.40181e-07
4.61213e-07
4.52165e-07
4.34377e-07
4.30678e-07
4.23259e-07
4.18157e-07
4.16845e-07
4.14332e-07
4.05543e-07
4.00881e-07
4.02396e-07
4.01405e-07
4.00051e-07
3.99199e-07
4.00488e-07
4.05058e-07
4.07261e-07
4.0859e-07
4.07329e-07
4.14495e-07
4.25152e-07
4.2692e-07
4.23369e-07
4.09058e-07
4.28579e-07
4.04693e-07
4.87754e-07
4.61299e-07
4.89652e-07
8.65974e-07
1.44142e-06
1.51132e-06
6.36129e-07
3.58581e-07
4.99907e-07
4.68601e-07
4.97971e-07
5.25822e-07
5.60238e-07
6.3212e-07
9.60393e-07
2.28757e-06
4.80562e-06
6.86033e-06
7.55291e-06
8.39843e-06
9.71799e-06
1.08371e-05
1.00977e-05
7.52896e-06
4.62188e-06
2.56905e-06
1.36303e-06
5.88923e-07
4.69241e-07
5.6432e-07
4.40213e-07
3.36982e-07
3.78228e-07
3.87485e-07
3.16497e-07
4.02666e-07
3.25207e-07
3.64831e-07
3.66743e-07
3.33919e-07
3.80715e-07
3.34571e-07
3.71201e-07
3.46986e-07
3.60073e-07
3.55327e-07
3.55344e-07
3.57107e-07
3.55583e-07
3.56096e-07
3.56644e-07
3.55384e-07
3.568e-07
3.55655e-07
3.56478e-07
3.55906e-07
3.56348e-07
3.56184e-07
3.56409e-07
3.56464e-07
3.5658e-07
3.56655e-07
3.56722e-07
3.56707e-07
3.56733e-07
3.56787e-07
3.56727e-07
3.56846e-07
3.56812e-07
3.56825e-07
3.57059e-07
3.56972e-07
3.57008e-07
3.57134e-07
3.57019e-07
3.57342e-07
3.57257e-07
3.57355e-07
3.57325e-07
3.57573e-07
3.57545e-07
3.57656e-07
3.57583e-07
3.57714e-07
3.5776e-07
3.57833e-07
3.57882e-07
3.58187e-07
3.58368e-07
3.58644e-07
3.58722e-07
3.58692e-07
3.59e-07
3.59264e-07
3.59345e-07
3.59312e-07
3.59453e-07
3.5958e-07
3.59739e-07
3.59946e-07
3.60112e-07
3.60413e-07
3.60099e-07
3.59671e-07
3.59654e-07
3.59271e-07
3.58303e-07
3.5863e-07
3.57163e-07
3.57703e-07
3.57034e-07
3.57563e-07
3.58134e-07
3.59312e-07
3.60298e-07
3.62065e-07
3.62927e-07
3.62658e-07
3.62504e-07
3.62671e-07
3.62384e-07
3.62048e-07
3.61626e-07
3.61438e-07
3.61317e-07
3.61237e-07
3.61208e-07
3.60653e-07
3.60108e-07
3.60006e-07
3.59602e-07
3.59487e-07
3.59502e-07
3.59571e-07
3.59475e-07
3.59242e-07
3.59147e-07
3.58857e-07
3.58674e-07
3.58582e-07
3.58509e-07
3.58368e-07
3.58393e-07
3.5818e-07
3.58278e-07
3.58006e-07
3.58137e-07
3.57962e-07
3.57797e-07
3.57858e-07
3.57735e-07
3.57555e-07
3.57592e-07
3.57446e-07
3.57386e-07
3.57495e-07
3.5739e-07
3.57379e-07
3.57482e-07
3.57463e-07
3.57311e-07
3.57209e-07
3.5723e-07
3.56931e-07
3.57153e-07
3.56593e-07
3.56872e-07
3.56769e-07
3.56025e-07
3.57701e-07
3.54561e-07
3.59337e-07
3.52355e-07
3.61639e-07
3.49882e-07
3.63785e-07
3.47487e-07
3.66175e-07
3.45284e-07
3.64419e-07
3.55022e-07
3.47585e-07
3.7093e-07
3.44934e-07
3.72058e-07
3.47315e-07
3.92178e-07
4.06924e-07
3.70809e-07
5.33354e-07
7.50152e-07
9.40453e-07
1.30449e-06
3.18957e-06
7.15224e-06
1.03755e-05
1.2257e-05
1.37628e-05
1.20964e-05
7.21807e-06
2.9999e-06
1.08227e-06
5.67834e-07
4.84747e-07
4.93327e-07
4.90189e-07
4.85795e-07
4.90354e-07
5.09954e-07
5.5409e-07
5.68907e-07
5.23219e-07
4.81039e-07
4.68095e-07
4.61489e-07
4.51679e-07
4.51781e-07
4.62252e-07
4.84229e-07
4.64895e-07
4.47332e-07
4.60917e-07
4.37279e-07
4.38447e-07
4.29432e-07
4.40559e-07
4.46948e-07
4.28206e-07
4.32808e-07
4.3113e-07
4.54525e-07
4.45031e-07
4.3692e-07
4.25379e-07
4.18537e-07
4.17311e-07
4.17404e-07
4.13532e-07
4.01624e-07
3.98789e-07
4.01301e-07
4.03149e-07
4.00439e-07
3.99617e-07
3.99444e-07
4.00589e-07
4.02451e-07
4.04803e-07
4.0574e-07
4.12168e-07
4.21734e-07
4.26098e-07
4.18185e-07
4.08213e-07
4.14342e-07
4.03393e-07
4.5421e-07
4.53032e-07
4.37583e-07
6.33664e-07
1.03219e-06
1.1813e-06
6.15853e-07
4.24824e-07
5.00668e-07
5.04012e-07
5.42688e-07
5.63868e-07
5.69792e-07
6.46133e-07
9.94581e-07
2.23253e-06
4.46521e-06
6.31227e-06
6.88472e-06
7.39413e-06
8.48016e-06
9.31248e-06
8.15592e-06
5.19666e-06
2.33887e-06
8.6325e-07
4.57622e-07
3.74868e-07
4.4321e-07
3.92711e-07
3.56834e-07
3.59125e-07
3.49599e-07
3.72707e-07
3.33046e-07
3.84157e-07
3.29765e-07
3.71154e-07
3.56421e-07
3.40871e-07
3.79679e-07
3.30561e-07
3.78093e-07
3.39812e-07
3.66704e-07
3.50108e-07
3.59531e-07
3.54587e-07
3.57239e-07
3.55634e-07
3.56841e-07
3.56081e-07
3.56718e-07
3.56404e-07
3.56636e-07
3.56564e-07
3.5654e-07
3.56603e-07
3.56684e-07
3.56655e-07
3.56633e-07
3.56748e-07
3.5671e-07
3.56641e-07
3.5694e-07
3.56905e-07
3.56898e-07
3.57234e-07
3.5726e-07
3.57164e-07
3.57462e-07
3.57303e-07
3.57218e-07
3.57489e-07
3.57166e-07
3.57473e-07
3.57404e-07
3.57664e-07
3.57738e-07
3.57871e-07
3.57811e-07
3.57996e-07
3.58089e-07
3.58299e-07
3.58152e-07
3.5813e-07
3.58118e-07
3.58242e-07
3.58287e-07
3.58621e-07
3.58731e-07
3.58709e-07
3.5871e-07
3.59183e-07
3.5937e-07
3.59295e-07
3.59292e-07
3.59565e-07
3.59585e-07
3.59726e-07
3.5973e-07
3.60056e-07
3.5984e-07
3.59577e-07
3.59058e-07
3.59216e-07
3.57912e-07
3.5825e-07
3.5705e-07
3.57466e-07
3.56893e-07
3.5721e-07
3.57877e-07
3.58629e-07
3.5999e-07
3.61483e-07
3.62052e-07
3.62763e-07
3.62882e-07
3.62616e-07
3.62145e-07
3.61592e-07
3.61429e-07
3.61569e-07
3.61651e-07
3.61105e-07
3.60674e-07