/*--------------------------------*- C++ -*----------------------------------*\
| =========                 |                                                 |
| \\      /  F ield         | OpenFOAM: The Open Source CFD Toolbox           |
|  \\    /   O peration     | Version:  v2006                                 |
|   \\  /    A nd           | Website:  www.openfoam.com                      |
|    \\/     M anipulation  |                                                 |
\*---------------------------------------------------------------------------*/
FoamFile
{
    version     2.0;
    format      ascii;
    class       volScalarField;
    location    "160";
    object      pPrime2Mean;
}
// * * * * * * * * * * * * * * * * * * * * * * * * * * * * * * * * * * * * * //

dimensions      [2 -2 -4 0 0 0 0];


internalField   nonuniform List<scalar> 
65536
(
6.15054e-05
6.0081e-05
5.78618e-05
5.54316e-05
5.29865e-05
5.0815e-05
4.88869e-05
4.74018e-05
4.61412e-05
4.52728e-05
4.43565e-05
4.3617e-05
4.28593e-05
4.2187e-05
4.15155e-05
4.10155e-05
4.08633e-05
4.09586e-05
4.08723e-05
4.02124e-05
3.79981e-05
3.58031e-05
3.43109e-05
3.33074e-05
3.27178e-05
3.19987e-05
3.13526e-05
3.08939e-05
3.04825e-05
3.03203e-05
3.00944e-05
2.9552e-05
2.88717e-05
2.82826e-05
2.77011e-05
2.71373e-05
2.69618e-05
2.69615e-05
2.74681e-05
2.80579e-05
2.90361e-05
2.98743e-05
3.10403e-05
3.21138e-05
3.35794e-05
3.48202e-05
3.63878e-05
3.74102e-05
3.8226e-05
3.80797e-05
3.75822e-05
3.61313e-05
3.46247e-05
3.25867e-05
3.08384e-05
2.88192e-05
2.7267e-05
2.55335e-05
2.43021e-05
2.29295e-05
2.20252e-05
2.09757e-05
2.03775e-05
1.96273e-05
1.92986e-05
1.88121e-05
1.87225e-05
1.84739e-05
1.8594e-05
1.85579e-05
1.88601e-05
1.90184e-05
1.94888e-05
1.9816e-05
2.04339e-05
2.0911e-05
2.16614e-05
2.22687e-05
2.31298e-05
2.38582e-05
2.48178e-05
2.56481e-05
2.66876e-05
2.761e-05
2.87181e-05
2.9713e-05
3.08752e-05
3.19328e-05
3.31365e-05
3.4241e-05
3.54715e-05
3.66144e-05
3.78613e-05
3.90288e-05
4.02794e-05
4.14586e-05
4.27002e-05
4.38814e-05
4.51046e-05
4.6274e-05
4.74695e-05
4.8616e-05
4.97712e-05
5.08825e-05
5.19919e-05
5.3062e-05
5.41125e-05
5.5129e-05
5.61163e-05
5.70658e-05
5.79841e-05
5.88623e-05
5.96966e-05
6.04951e-05
6.12455e-05
6.19555e-05
6.26112e-05
6.32273e-05
6.37759e-05
6.42907e-05
6.47327e-05
6.51398e-05
6.54706e-05
6.5784e-05
6.60144e-05
6.61924e-05
6.63017e-05
6.63682e-05
6.63589e-05
6.63062e-05
6.6186e-05
6.60173e-05
6.57706e-05
6.54646e-05
6.51321e-05
6.47413e-05
6.42951e-05
6.37911e-05
6.32323e-05
6.26283e-05
6.19694e-05
6.127e-05
6.05271e-05
5.97417e-05
5.89168e-05
5.8053e-05
5.71535e-05
5.622e-05
5.52543e-05
5.42604e-05
5.32363e-05
5.21899e-05
5.11182e-05
5.00313e-05
4.89202e-05
4.77997e-05
4.66609e-05
4.55213e-05
4.43671e-05
4.32137e-05
4.20532e-05
4.09049e-05
3.97522e-05
3.86147e-05
3.74824e-05
3.63681e-05
3.52676e-05
3.41935e-05
3.31332e-05
3.21104e-05
3.11035e-05
3.01489e-05
2.9206e-05
2.83305e-05
2.74719e-05
2.6682e-05
2.59177e-05
2.52312e-05
2.45787e-05
2.40055e-05
2.34757e-05
2.30341e-05
2.26415e-05
2.2344e-05
2.21053e-05
2.19568e-05
2.18898e-05
2.19208e-05
2.20355e-05
2.22544e-05
2.25726e-05
2.29883e-05
2.35301e-05
2.41687e-05
2.49546e-05
2.58213e-05
2.68706e-05
2.79851e-05
2.92851e-05
3.06204e-05
3.20801e-05
3.34531e-05
3.48111e-05
3.57942e-05
3.64784e-05
3.64944e-05
3.60071e-05
3.4917e-05
3.35685e-05
3.19709e-05
3.04791e-05
2.90821e-05
2.78957e-05
2.6907e-05
2.61792e-05
2.56336e-05
2.54014e-05
2.53794e-05
2.55121e-05
2.57322e-05
2.60048e-05
2.63714e-05
2.68349e-05
2.71617e-05
2.77509e-05
2.82747e-05
2.92264e-05
3.00025e-05
3.07681e-05
3.12052e-05
3.20201e-05
3.25291e-05
3.32008e-05
3.38393e-05
3.51258e-05
3.68545e-05
3.89347e-05
3.94506e-05
3.99497e-05
4.04751e-05
4.1826e-05
4.3518e-05
4.55806e-05
4.72764e-05
4.89445e-05
4.99905e-05
5.09758e-05
5.13595e-05
5.18234e-05
5.20147e-05
5.26064e-05
5.35277e-05
5.51843e-05
5.72865e-05
5.96445e-05
6.13942e-05
6.03821e-05
5.89903e-05
5.68451e-05
5.4444e-05
5.2071e-05
4.99407e-05
4.80256e-05
4.65584e-05
4.52913e-05
4.44267e-05
4.3512e-05
4.27763e-05
4.20036e-05
4.13407e-05
4.06616e-05
4.01457e-05
3.99787e-05
4.00875e-05
4.00064e-05
3.94309e-05
3.73314e-05
3.51803e-05
3.3708e-05
3.27352e-05
3.21888e-05
3.153e-05
3.08988e-05
3.04333e-05
2.99868e-05
2.97866e-05
2.95386e-05
2.90115e-05
2.83209e-05
2.77346e-05
2.71957e-05
2.66537e-05
2.64827e-05
2.64718e-05
2.69458e-05
2.74949e-05
2.84253e-05
2.92356e-05
3.03454e-05
3.13482e-05
3.27365e-05
3.39166e-05
3.53996e-05
3.63534e-05
3.71133e-05
3.69372e-05
3.64242e-05
3.50066e-05
3.3556e-05
3.15828e-05
2.99014e-05
2.79642e-05
2.64823e-05
2.48197e-05
2.36484e-05
2.23351e-05
2.14785e-05
2.04776e-05
1.99151e-05
1.92023e-05
1.89e-05
1.8444e-05
1.83722e-05
1.8147e-05
1.82793e-05
1.82613e-05
1.85721e-05
1.87409e-05
1.92118e-05
1.95448e-05
2.01602e-05
2.064e-05
2.13831e-05
2.19906e-05
2.2841e-05
2.35651e-05
2.45117e-05
2.53342e-05
2.63594e-05
2.72697e-05
2.83614e-05
2.93424e-05
3.04869e-05
3.15291e-05
3.2711e-05
3.37999e-05
3.50093e-05
3.61332e-05
3.73577e-05
3.85065e-05
3.97366e-05
4.08947e-05
4.21142e-05
4.32761e-05
4.44766e-05
4.56257e-05
4.68001e-05
4.79281e-05
4.90615e-05
5.0155e-05
5.12454e-05
5.22947e-05
5.3326e-05
5.43256e-05
5.52946e-05
5.62292e-05
5.71296e-05
5.79917e-05
5.88141e-05
5.95976e-05
6.03281e-05
6.10299e-05
6.16708e-05
6.22757e-05
6.28113e-05
6.33208e-05
6.37519e-05
6.41542e-05
6.44734e-05
6.47745e-05
6.5e-05
6.51748e-05
6.52817e-05
6.53463e-05
6.53367e-05
6.52905e-05
6.5169e-05
6.50042e-05
6.47659e-05
6.44676e-05
6.41471e-05
6.37597e-05
6.33243e-05
6.28269e-05
6.22803e-05
6.16857e-05
6.10433e-05
6.03576e-05
5.96258e-05
5.88575e-05
5.80448e-05
5.71951e-05
5.63125e-05
5.53935e-05
5.44458e-05
5.34693e-05
5.24627e-05
5.14324e-05
5.03801e-05
4.93109e-05
4.82194e-05
4.71174e-05
4.59986e-05
4.4877e-05
4.37429e-05
4.26088e-05
4.1468e-05
4.03368e-05
3.92035e-05
3.80833e-05
3.69687e-05
3.58726e-05
3.47871e-05
3.3728e-05
3.26828e-05
3.16749e-05
3.06804e-05
2.97384e-05
2.88065e-05
2.79376e-05
2.70874e-05
2.63042e-05
2.55456e-05
2.48622e-05
2.42105e-05
2.36377e-05
2.31062e-05
2.26612e-05
2.22645e-05
2.19585e-05
2.17123e-05
2.15531e-05
2.14713e-05
2.14842e-05
2.15796e-05
2.17755e-05
2.20682e-05
2.24576e-05
2.29657e-05
2.35705e-05
2.43174e-05
2.51416e-05
2.6138e-05
2.72024e-05
2.84427e-05
2.97188e-05
3.11186e-05
3.24363e-05
3.37515e-05
3.47067e-05
3.53794e-05
3.54126e-05
3.49779e-05
3.39456e-05
3.26662e-05
3.1148e-05
2.97225e-05
2.83983e-05
2.72825e-05
2.63293e-05
2.56123e-05
2.5091e-05
2.48874e-05
2.48655e-05
2.49945e-05
2.52152e-05
2.54891e-05
2.58507e-05
2.63029e-05
2.66158e-05
2.72301e-05
2.78075e-05
2.87287e-05
2.94683e-05
3.03082e-05
3.07603e-05
3.15297e-05
3.19896e-05
3.26192e-05
3.32308e-05
3.45014e-05
3.62064e-05
3.8213e-05
3.86729e-05
3.91454e-05
3.96519e-05
4.0989e-05
4.2654e-05
4.46886e-05
4.63317e-05
4.8003e-05
4.90386e-05
5.00402e-05
5.04436e-05
5.09387e-05
5.115e-05
5.17576e-05
5.2678e-05
5.42809e-05
5.63412e-05
5.85745e-05
6.02535e-05
6.02394e-05
5.88945e-05
5.67558e-05
5.44081e-05
5.20381e-05
4.9924e-05
4.8052e-05
4.6586e-05
4.53419e-05
4.44654e-05
4.35571e-05
4.28397e-05
4.20846e-05
4.14238e-05
4.07519e-05
4.02376e-05
4.00807e-05
4.01839e-05
4.01847e-05
3.96338e-05
3.75682e-05
3.53663e-05
3.38193e-05
3.27866e-05
3.22201e-05
3.15687e-05
3.0927e-05
3.04782e-05
3.00698e-05
2.97665e-05
2.95148e-05
2.89984e-05
2.83644e-05
2.77804e-05
2.7234e-05
2.67142e-05
2.65248e-05
2.65117e-05
2.69646e-05
2.75141e-05
2.84315e-05
2.92035e-05
3.02734e-05
3.12486e-05
3.26222e-05
3.37776e-05
3.52424e-05
3.61647e-05
3.69002e-05
3.67086e-05
3.62005e-05
3.47795e-05
3.33394e-05
3.1378e-05
2.97111e-05
2.77906e-05
2.63214e-05
2.4673e-05
2.35138e-05
2.22117e-05
2.13629e-05
2.0373e-05
1.98179e-05
1.91141e-05
1.88172e-05
1.83674e-05
1.8298e-05
1.80731e-05
1.82068e-05
1.8189e-05
1.85004e-05
1.86664e-05
1.91363e-05
1.94697e-05
2.00833e-05
2.05599e-05
2.12998e-05
2.19069e-05
2.27541e-05
2.34755e-05
2.44188e-05
2.52384e-05
2.62614e-05
2.71664e-05
2.82557e-05
2.92346e-05
3.03762e-05
3.14138e-05
3.25927e-05
3.36787e-05
3.48874e-05
3.60041e-05
3.72263e-05
3.83693e-05
3.9598e-05
4.07523e-05
4.19687e-05
4.31238e-05
4.43234e-05
4.54683e-05
4.66398e-05
4.77615e-05
4.88973e-05
4.99889e-05
5.10753e-05
5.21225e-05
5.31538e-05
5.41477e-05
5.51177e-05
5.60512e-05
5.69536e-05
5.78138e-05
5.86326e-05
5.94171e-05
6.01529e-05
6.08482e-05
6.14917e-05
6.20969e-05
6.26355e-05
6.31457e-05
6.35766e-05
6.39819e-05
6.43104e-05
6.46182e-05
6.48481e-05
6.50279e-05
6.51275e-05
6.51959e-05
6.51924e-05
6.51342e-05
6.50206e-05
6.48493e-05
6.46093e-05
6.43034e-05
6.39785e-05
6.35878e-05
6.3148e-05
6.26492e-05
6.21009e-05
6.15067e-05
6.08646e-05
6.01792e-05
5.94477e-05
5.86782e-05
5.78663e-05
5.70181e-05
5.61349e-05
5.52209e-05
5.42695e-05
5.32959e-05
5.22891e-05
5.12643e-05
5.02107e-05
4.91428e-05
4.80522e-05
4.69543e-05
4.58375e-05
4.47195e-05
4.3587e-05
4.24592e-05
4.13192e-05
4.01921e-05
3.90607e-05
3.7946e-05
3.68314e-05
3.57426e-05
3.46567e-05
3.36038e-05
3.2559e-05
3.1554e-05
3.05612e-05
2.96266e-05
2.86943e-05
2.78294e-05
2.6982e-05
2.62022e-05
2.54449e-05
2.47635e-05
2.4114e-05
2.35447e-05
2.30145e-05
2.25735e-05
2.21767e-05
2.18721e-05
2.16232e-05
2.1466e-05
2.13809e-05
2.13932e-05
2.14851e-05
2.16781e-05
2.19674e-05
2.23516e-05
2.28537e-05
2.34486e-05
2.41825e-05
2.49994e-05
2.59857e-05
2.70432e-05
2.8274e-05
2.95413e-05
3.09297e-05
3.22458e-05
3.35459e-05
3.45099e-05
3.51918e-05
3.52401e-05
3.48247e-05
3.38215e-05
3.25669e-05
3.10612e-05
2.96496e-05
2.83412e-05
2.72231e-05
2.62985e-05
2.56385e-05
2.51422e-05
2.49183e-05
2.48954e-05
2.50344e-05
2.52561e-05
2.55498e-05
2.59105e-05
2.63578e-05
2.6694e-05
2.72912e-05
2.78311e-05
2.8765e-05
2.95375e-05
3.03972e-05
3.08655e-05
3.1623e-05
3.20689e-05
3.26932e-05
3.33203e-05
3.46599e-05
3.64358e-05
3.84026e-05
3.88509e-05
3.9284e-05
3.97836e-05
4.11098e-05
4.27822e-05
4.47822e-05
4.64534e-05
4.81025e-05
4.91433e-05
5.01339e-05
5.05433e-05
5.1022e-05
5.12258e-05
5.17978e-05
5.26969e-05
5.42803e-05
5.62872e-05
5.84809e-05
6.01106e-05
5.87188e-05
5.74225e-05
5.54105e-05
5.31438e-05
5.08655e-05
4.88148e-05
4.69608e-05
4.55384e-05
4.42915e-05
4.34169e-05
4.25026e-05
4.1813e-05
4.10553e-05
4.04164e-05
3.97362e-05
3.92427e-05
3.90823e-05
3.92735e-05
3.92827e-05
3.88807e-05
3.68624e-05
3.46395e-05
3.29657e-05
3.19341e-05
3.14488e-05
3.09626e-05
3.04348e-05
3.00015e-05
2.94626e-05
2.91176e-05
2.8845e-05
2.83493e-05
2.77002e-05
2.71392e-05
2.66132e-05
2.61181e-05
2.59499e-05
2.59205e-05
2.63324e-05
2.68307e-05
2.76832e-05
2.84495e-05
2.94977e-05
3.0412e-05
3.1694e-05
3.27572e-05
3.41007e-05
3.49186e-05
3.55751e-05
3.53422e-05
3.4813e-05
3.34431e-05
3.20757e-05
3.02154e-05
2.86445e-05
2.683e-05
2.5452e-05
2.39057e-05
2.2813e-05
2.15823e-05
2.07878e-05
1.98513e-05
1.93364e-05
1.86749e-05
1.84082e-05
1.79948e-05
1.79481e-05
1.77561e-05
1.79089e-05
1.79176e-05
1.82433e-05
1.84303e-05
1.89119e-05
1.92625e-05
1.98833e-05
2.03755e-05
2.11198e-05
2.1737e-05
2.25876e-05
2.33178e-05
2.42627e-05
2.50878e-05
2.61116e-05
2.70245e-05
2.81113e-05
2.90937e-05
3.02358e-05
3.12748e-05
3.24502e-05
3.35401e-05
3.47444e-05
3.58634e-05
3.70773e-05
3.8224e-05
3.94448e-05
4.06017e-05
4.18138e-05
4.29699e-05
4.41673e-05
4.53107e-05
4.6477e-05
4.75986e-05
4.87295e-05
4.98182e-05
5.09022e-05
5.1947e-05
5.29737e-05
5.39658e-05
5.49291e-05
5.58565e-05
5.67533e-05
5.76072e-05
5.84234e-05
5.92048e-05
5.99302e-05
6.06298e-05
6.12658e-05
6.18674e-05
6.24018e-05
6.29101e-05
6.33349e-05
6.37432e-05
6.40585e-05
6.43646e-05
6.45856e-05
6.47636e-05
6.4871e-05
6.49365e-05
6.4927e-05
6.48814e-05
6.4758e-05
6.45906e-05
6.43539e-05
6.40597e-05
6.37372e-05
6.33523e-05
6.29133e-05
6.24186e-05
6.18763e-05
6.12856e-05
6.06455e-05
5.99605e-05
5.92349e-05
5.84666e-05
5.76599e-05
5.68169e-05
5.59371e-05
5.5024e-05
5.40834e-05
5.31078e-05
5.21043e-05
5.10849e-05
5.00329e-05
4.89693e-05
4.78761e-05
4.67834e-05
4.56678e-05
4.45489e-05
4.34155e-05
4.22889e-05
4.11471e-05
4.00193e-05
3.88879e-05
3.77717e-05
3.66575e-05
3.55646e-05
3.44797e-05
3.34184e-05
3.23704e-05
3.13644e-05
3.03653e-05
2.94258e-05
2.8487e-05
2.76135e-05
2.67565e-05
2.59665e-05
2.51997e-05
2.45068e-05
2.38471e-05
2.32645e-05
2.27209e-05
2.22618e-05
2.18484e-05
2.15248e-05
2.12563e-05
2.10775e-05
2.09702e-05
2.09546e-05
2.10201e-05
2.11798e-05
2.14387e-05
2.17885e-05
2.22528e-05
2.28104e-05
2.3499e-05
2.42669e-05
2.51941e-05
2.6177e-05
2.73281e-05
2.85114e-05
2.98156e-05
3.10487e-05
3.22828e-05
3.31974e-05
3.38574e-05
3.39314e-05
3.35846e-05
3.26729e-05
3.15302e-05
3.01563e-05
2.88473e-05
2.7604e-05
2.65634e-05
2.5658e-05
2.49805e-05
2.44887e-05
2.43107e-05
2.42932e-05
2.44324e-05
2.46405e-05
2.49097e-05
2.52339e-05
2.56864e-05
2.6023e-05
2.66358e-05
2.72426e-05
2.81563e-05
2.89184e-05
2.99131e-05
3.03965e-05
3.10049e-05
3.13216e-05
3.18421e-05
3.24901e-05
3.39225e-05
3.57541e-05
3.76745e-05
3.80243e-05
3.84452e-05
3.88802e-05
4.01974e-05
4.1805e-05
4.37812e-05
4.53916e-05
4.70514e-05
4.80536e-05
4.90525e-05
4.94582e-05
4.99833e-05
5.01655e-05
5.07475e-05
5.16254e-05
5.3123e-05
5.49972e-05
5.7081e-05
5.86075e-05
5.88147e-05
5.75787e-05
5.55874e-05
5.33711e-05
5.11207e-05
4.90997e-05
4.72936e-05
4.58784e-05
4.46541e-05
4.37702e-05
4.28695e-05
4.21717e-05
4.14236e-05
4.07729e-05
4.00926e-05
3.95762e-05
3.94468e-05
3.96722e-05
3.97523e-05
3.94179e-05
3.74465e-05
3.51368e-05
3.33318e-05
3.22408e-05
3.17476e-05
3.11982e-05
3.06549e-05
3.02149e-05
2.97208e-05
2.92913e-05
2.89708e-05
2.84616e-05
2.78635e-05
2.72964e-05
2.67938e-05
2.62767e-05
2.60837e-05
2.60207e-05
2.63942e-05
2.68437e-05
2.76881e-05
2.83989e-05
2.93807e-05
3.02412e-05
3.14804e-05
3.25018e-05
3.37914e-05
3.45533e-05
3.51593e-05
3.48967e-05
3.43609e-05
3.30132e-05
3.16776e-05
2.986e-05
2.83404e-05
2.65745e-05
2.52328e-05
2.37175e-05
2.26565e-05
2.14431e-05
2.06722e-05
1.97509e-05
1.92526e-05
1.86019e-05
1.83442e-05
1.79338e-05
1.78914e-05
1.76975e-05
1.78492e-05
1.78515e-05
1.81725e-05
1.83526e-05
1.88288e-05
1.91677e-05
1.9783e-05
2.02617e-05
2.09984e-05
2.16021e-05
2.24416e-05
2.31559e-05
2.40875e-05
2.48994e-05
2.59081e-05
2.68055e-05
2.78796e-05
2.88431e-05
2.99661e-05
3.09935e-05
3.21526e-05
3.32254e-05
3.44154e-05
3.55205e-05
3.67243e-05
3.78501e-05
3.90588e-05
4.01949e-05
4.13976e-05
4.25336e-05
4.37112e-05
4.48398e-05
4.59953e-05
4.71017e-05
4.82181e-05
4.92933e-05
5.03678e-05
5.13978e-05
5.24128e-05
5.33932e-05
5.43509e-05
5.5269e-05
5.61608e-05
5.70087e-05
5.78171e-05
5.85901e-05
5.93157e-05
5.99989e-05
6.0631e-05
6.12233e-05
6.17602e-05
6.22616e-05
6.26893e-05
6.30876e-05
6.34108e-05
6.3712e-05
6.39345e-05
6.41127e-05
6.42176e-05
6.4282e-05
6.42751e-05
6.42196e-05
6.41014e-05
6.39368e-05
6.36996e-05
6.34057e-05
6.30874e-05
6.27003e-05
6.22628e-05
6.17693e-05
6.1231e-05
6.0649e-05
6.00125e-05
5.93411e-05
5.86191e-05
5.78626e-05
5.70601e-05
5.6225e-05
5.53492e-05
5.44506e-05
5.35112e-05
5.2552e-05
5.15578e-05
5.05422e-05
4.95066e-05
4.84504e-05
4.73809e-05
4.62953e-05
4.51961e-05
4.40902e-05
4.29759e-05
4.18557e-05
4.07369e-05
3.96245e-05
3.85072e-05
3.74068e-05
3.63087e-05
3.52313e-05
3.41597e-05
3.31165e-05
3.20823e-05
3.10935e-05
3.01106e-05
2.91847e-05
2.82627e-05
2.74045e-05
2.65644e-05
2.57886e-05
2.50342e-05
2.43563e-05
2.37063e-05
2.31372e-05
2.26015e-05
2.21541e-05
2.17475e-05
2.14314e-05
2.11678e-05
2.09953e-05
2.089e-05
2.08775e-05
2.09415e-05
2.10999e-05
2.13504e-05
2.16922e-05
2.21442e-05
2.26877e-05
2.33551e-05
2.41047e-05
2.50066e-05
2.59732e-05
2.70949e-05
2.82455e-05
2.95149e-05
3.07186e-05
3.19176e-05
3.28222e-05
3.34842e-05
3.3583e-05
3.32724e-05
3.24182e-05
3.13174e-05
2.99571e-05
2.86815e-05
2.74859e-05
2.64612e-05
2.5619e-05
2.50205e-05
2.45792e-05
2.43851e-05
2.43758e-05
2.45263e-05
2.47676e-05
2.50602e-05
2.54152e-05
2.58774e-05
2.62443e-05
2.68619e-05
2.74493e-05
2.84004e-05
2.92255e-05
3.02297e-05
3.06829e-05
3.12984e-05
3.16291e-05
3.21704e-05
3.28569e-05
3.44146e-05
3.63327e-05
3.82481e-05
3.85589e-05
3.89406e-05
3.93437e-05
4.06187e-05
4.22333e-05
4.41723e-05
4.58453e-05
4.74637e-05
4.8516e-05
4.94923e-05
4.99243e-05
5.0401e-05
5.05719e-05
5.11138e-05
5.19641e-05
5.34073e-05
5.5216e-05
5.71993e-05
5.87025e-05
5.70513e-05
5.58644e-05
5.3996e-05
5.18803e-05
4.97154e-05
4.77849e-05
4.6017e-05
4.46539e-05
4.34495e-05
4.25777e-05
4.16854e-05
4.10165e-05
4.02802e-05
3.9643e-05
3.89706e-05
3.84864e-05
3.8379e-05
3.87111e-05
3.88684e-05
3.86854e-05
3.67327e-05
3.43225e-05
3.2355e-05
3.11828e-05
3.07183e-05
3.03266e-05
2.98555e-05
2.94527e-05
2.88766e-05
2.84325e-05
2.81129e-05
2.76385e-05
2.70467e-05
2.6507e-05
2.6033e-05
2.5564e-05
2.53961e-05
2.53275e-05
2.56556e-05
2.60762e-05
2.68868e-05
2.75941e-05
2.85667e-05
2.93532e-05
3.04874e-05
3.13837e-05
3.25357e-05
3.31841e-05
3.36998e-05
3.34051e-05
3.28772e-05
3.16025e-05
3.03707e-05
2.86854e-05
2.72936e-05
2.56508e-05
2.44151e-05
2.30035e-05
2.2015e-05
2.08753e-05
2.0155e-05
1.92866e-05
1.88232e-05
1.82115e-05
1.798e-05
1.76038e-05
1.75827e-05
1.74202e-05
1.75883e-05
1.76184e-05
1.7958e-05
1.81638e-05
1.86547e-05
1.9016e-05
1.96436e-05
2.01408e-05
2.08879e-05
2.151e-05
2.23621e-05
2.30934e-05
2.40359e-05
2.48661e-05
2.58848e-05
2.67955e-05
2.78803e-05
2.88576e-05
2.99939e-05
3.10297e-05
3.21989e-05
3.32804e-05
3.448e-05
3.55919e-05
3.68057e-05
3.79422e-05
3.91582e-05
4.03071e-05
4.15103e-05
4.26573e-05
4.38447e-05
4.49876e-05
4.61433e-05
4.72611e-05
4.83791e-05
4.9465e-05
5.05411e-05
5.15819e-05
5.2605e-05
5.35941e-05
5.45483e-05
5.5469e-05
5.63586e-05
5.72113e-05
5.80189e-05
5.87961e-05
5.95191e-05
6.02084e-05
6.0838e-05
6.14406e-05
6.19694e-05
6.24817e-05
6.29041e-05
6.33134e-05
6.36255e-05
6.39324e-05
6.4153e-05
6.43317e-05
6.44381e-05
6.45051e-05
6.4497e-05
6.44476e-05
6.43236e-05
6.41564e-05
6.39206e-05
6.36312e-05
6.33088e-05
6.29221e-05
6.24776e-05
6.19858e-05
6.14474e-05
6.08594e-05
6.02223e-05
5.95434e-05
5.88239e-05
5.80608e-05
5.72616e-05
5.64203e-05
5.55476e-05
5.46359e-05
5.36984e-05
5.273e-05
5.17363e-05
5.07192e-05
4.96738e-05
4.86136e-05
4.75277e-05
4.64387e-05
4.53257e-05
4.42111e-05
4.30866e-05
4.1959e-05
4.08234e-05
3.97026e-05
3.85728e-05
3.74623e-05
3.6349e-05
3.52608e-05
3.41753e-05
3.31224e-05
3.20704e-05
3.10649e-05
3.00703e-05
2.91244e-05
2.81839e-05
2.73131e-05
2.64536e-05
2.56585e-05
2.48871e-05
2.4188e-05
2.35221e-05
2.29265e-05
2.23706e-05
2.18975e-05
2.1475e-05
2.11332e-05
2.0847e-05
2.06474e-05
2.05181e-05
2.04806e-05
2.05187e-05
2.06507e-05
2.0873e-05
2.11853e-05
2.16018e-05
2.21098e-05
2.27362e-05
2.34347e-05
2.42754e-05
2.5165e-05
2.62016e-05
2.72545e-05
2.84167e-05
2.95102e-05
3.06125e-05
3.14413e-05
3.20572e-05
3.21626e-05
3.19052e-05
3.11427e-05
3.0183e-05
2.89789e-05
2.78336e-05
2.67139e-05
2.57696e-05
2.49469e-05
2.43297e-05
2.38775e-05
2.36978e-05
2.36899e-05
2.3848e-05
2.40467e-05
2.43196e-05
2.46059e-05
2.50536e-05
2.54324e-05
2.60587e-05
2.66723e-05
2.76132e-05
2.83926e-05
2.94406e-05
2.99185e-05
3.04277e-05
3.06431e-05
3.11391e-05
3.19241e-05
3.35923e-05
3.56081e-05
3.75007e-05
3.76857e-05
3.80423e-05
3.83494e-05
3.95979e-05
4.1141e-05
4.3085e-05
4.46846e-05
4.63412e-05
4.734e-05
4.83289e-05
4.87296e-05
4.92497e-05
4.93782e-05
4.99038e-05
5.06844e-05
5.2019e-05
5.37146e-05
5.55652e-05
5.69239e-05
5.7355e-05
5.62315e-05
5.43974e-05
5.23281e-05
5.02232e-05
4.83147e-05
4.65846e-05
4.52407e-05
4.406e-05
4.31865e-05
4.22997e-05
4.16194e-05
4.08706e-05
4.02168e-05
3.95122e-05
3.90044e-05
3.89173e-05
3.93388e-05
3.95506e-05
3.94196e-05
3.74992e-05
3.50153e-05
3.29211e-05
3.16381e-05
3.11643e-05
3.07291e-05
3.02512e-05
2.98096e-05
2.92639e-05
2.8772e-05
2.84089e-05
2.79054e-05
2.73306e-05
2.67834e-05
2.63065e-05
2.5824e-05
2.56311e-05
2.55136e-05
2.57882e-05
2.61301e-05
2.68735e-05
2.75125e-05
2.84388e-05
2.92005e-05
3.02995e-05
3.1164e-05
3.22527e-05
3.2844e-05
3.32959e-05
3.29621e-05
3.24298e-05
3.11914e-05
3.00061e-05
2.83745e-05
2.70322e-05
2.54458e-05
2.42573e-05
2.2865e-05
2.19039e-05
2.07792e-05
2.00728e-05
1.9209e-05
1.87533e-05
1.81448e-05
1.79167e-05
1.75405e-05
1.75203e-05
1.73512e-05
1.75169e-05
1.75368e-05
1.78687e-05
1.80605e-05
1.85385e-05
1.88854e-05
1.94968e-05
1.99774e-05
2.07083e-05
2.13105e-05
2.21448e-05
2.28547e-05
2.37776e-05
2.45804e-05
2.55785e-05
2.64632e-05
2.75263e-05
2.84798e-05
2.95896e-05
3.06039e-05
3.17506e-05
3.28085e-05
3.39808e-05
3.50746e-05
3.62586e-05
3.73779e-05
3.8568e-05
3.96928e-05
4.08779e-05
4.20059e-05
4.31697e-05
4.42803e-05
4.54231e-05
4.65111e-05
4.76152e-05
4.86761e-05
4.97358e-05
5.07518e-05
5.1757e-05
5.27255e-05
5.36708e-05
5.45781e-05
5.54568e-05
5.62927e-05
5.70935e-05
5.78546e-05
5.85714e-05
5.92467e-05
5.98771e-05
6.046e-05
6.09881e-05
6.14849e-05
6.19115e-05
6.23061e-05
6.26215e-05
6.29102e-05
6.31362e-05
6.33125e-05
6.34177e-05
6.34862e-05
6.34773e-05
6.34234e-05
6.33082e-05
6.31385e-05
6.29096e-05
6.26229e-05
6.23066e-05
6.19204e-05
6.1483e-05
6.09957e-05
6.04634e-05
5.9888e-05
5.92638e-05
5.86003e-05
5.78856e-05
5.71353e-05
5.63432e-05
5.55207e-05
5.46546e-05
5.37667e-05
5.28369e-05
5.18905e-05
5.09014e-05
4.99008e-05
4.88758e-05
4.78341e-05
4.67748e-05
4.57019e-05
4.46172e-05
4.35218e-05
4.24203e-05
4.13154e-05
4.02093e-05
3.91029e-05
3.80033e-05
3.69123e-05
3.58296e-05
3.47611e-05
3.37056e-05
3.26661e-05
3.16451e-05
3.06629e-05
2.96867e-05
2.87645e-05
2.78539e-05
2.70024e-05
2.61669e-05
2.5397e-05
2.46457e-05
2.39711e-05
2.33194e-05
2.2749e-05
2.22101e-05
2.17556e-05
2.13411e-05
2.10197e-05
2.07411e-05
2.0556e-05
2.04311e-05
2.03994e-05
2.04375e-05
2.05695e-05
2.07899e-05
2.11012e-05
2.15094e-05
2.20114e-05
2.26214e-05
2.3312e-05
2.41309e-05
2.50139e-05
2.60214e-05
2.70411e-05
2.81587e-05
2.92155e-05
3.02775e-05
3.1091e-05
3.17134e-05
3.1846e-05
3.16444e-05
3.09504e-05
3.00269e-05
2.88406e-05
2.77106e-05
2.66211e-05
2.57028e-05
2.49378e-05
2.43858e-05
2.39866e-05
2.38415e-05
2.38501e-05
2.4027e-05
2.42496e-05
2.4564e-05
2.48943e-05
2.53739e-05
2.57707e-05
2.64402e-05
2.70937e-05
2.80152e-05
2.88456e-05
2.98812e-05
3.03531e-05
3.08761e-05
3.10982e-05
3.16051e-05
3.24744e-05
3.42995e-05
3.64145e-05
3.83076e-05
3.85021e-05
3.87998e-05
3.9067e-05
4.02585e-05
4.18237e-05
4.3722e-05
4.53813e-05
4.70088e-05
4.80624e-05
4.90223e-05
4.94609e-05
4.99147e-05
5.00396e-05
5.05213e-05
5.12763e-05
5.25505e-05
5.41378e-05
5.59017e-05
5.72296e-05
5.5424e-05
5.43493e-05
5.2615e-05
5.06705e-05
4.86371e-05
4.683e-05
4.51605e-05
4.38708e-05
4.27223e-05
4.18728e-05
4.10094e-05
4.03583e-05
3.96491e-05
3.89857e-05
3.83358e-05
3.78839e-05
3.78834e-05
3.83586e-05
3.86592e-05
3.86489e-05
3.67412e-05
3.41435e-05
3.18909e-05
3.05003e-05
2.99859e-05
2.96465e-05
2.92059e-05
2.88479e-05
2.83198e-05
2.78412e-05
2.74726e-05
2.69969e-05
2.64478e-05
2.59276e-05
2.54611e-05
2.50153e-05
2.48361e-05
2.47557e-05
2.50138e-05
2.53385e-05
2.60818e-05
2.67246e-05
2.76157e-05
2.82896e-05
2.92851e-05
3.00324e-05
3.09963e-05
3.14734e-05
3.18502e-05
3.15067e-05
3.10062e-05
2.98662e-05
2.8795e-05
2.7304e-05
2.60765e-05
2.45859e-05
2.34621e-05
2.21577e-05
2.12541e-05
2.02056e-05
1.95476e-05
1.87453e-05
1.83303e-05
1.77731e-05
1.75752e-05
1.7238e-05
1.7242e-05
1.71078e-05
1.72931e-05
1.73433e-05
1.76941e-05
1.79146e-05
1.84128e-05
1.87862e-05
1.94167e-05
1.99252e-05
2.06696e-05
2.12987e-05
2.21473e-05
2.2882e-05
2.38212e-05
2.46485e-05
2.56626e-05
2.657e-05
2.76516e-05
2.86258e-05
2.97559e-05
3.07857e-05
3.19495e-05
3.30243e-05
3.42142e-05
3.53206e-05
3.65235e-05
3.76576e-05
3.88616e-05
4.00083e-05
4.12021e-05
4.23447e-05
4.35189e-05
4.46575e-05
4.58048e-05
4.69164e-05
4.80272e-05
4.91061e-05
5.01723e-05
5.12093e-05
5.2222e-05
5.3208e-05
5.4155e-05
5.5076e-05
5.5953e-05
5.68001e-05
5.76049e-05
5.83741e-05
5.90943e-05
5.97821e-05
6.0405e-05
6.10064e-05
6.15352e-05
6.20452e-05
6.24677e-05
6.28751e-05
6.31873e-05
6.3487e-05
6.3707e-05
6.38874e-05
6.39956e-05
6.4065e-05
6.40561e-05
6.40038e-05
6.38798e-05
6.37092e-05
6.34739e-05
6.31917e-05
6.28693e-05
6.24786e-05
6.20336e-05
6.15458e-05
6.10102e-05
6.04271e-05
5.97973e-05
5.9123e-05
5.84056e-05
5.76462e-05
5.68494e-05
5.60121e-05
5.51458e-05
5.42369e-05
5.33077e-05
5.23411e-05
5.13572e-05
5.03342e-05
4.93042e-05
4.8245e-05
4.71703e-05
4.60849e-05
4.49805e-05
4.38701e-05
4.27504e-05
4.16317e-05
4.05019e-05
3.93861e-05
3.82588e-05
3.71485e-05
3.60414e-05
3.49577e-05
3.3876e-05
3.28279e-05
3.17814e-05
3.07749e-05
2.9779e-05
2.88329e-05
2.78961e-05
2.70216e-05
2.6162e-05
2.53645e-05
2.45891e-05
2.38851e-05
2.32089e-05
2.26046e-05
2.20478e-05
2.15608e-05
2.11267e-05
2.07683e-05
2.04675e-05
2.02488e-05
2.0098e-05
2.00354e-05
2.00499e-05
2.01477e-05
2.03381e-05
2.0607e-05
2.09781e-05
2.1432e-05
2.20005e-05
2.26358e-05
2.34064e-05
2.42181e-05
2.51675e-05
2.61219e-05
2.71665e-05
2.8122e-05
2.90798e-05
2.97879e-05
3.03375e-05
3.04552e-05
3.0281e-05
2.96592e-05
2.88703e-05
2.78287e-05
2.68476e-05
2.58457e-05
2.50089e-05
2.42652e-05
2.37305e-05
2.32988e-05
2.31336e-05
2.31473e-05
2.32861e-05
2.34659e-05
2.37438e-05
2.40244e-05
2.4495e-05
2.49058e-05
2.55566e-05
2.61826e-05
2.71851e-05
2.79048e-05
2.88563e-05
2.93162e-05
2.98074e-05
2.99644e-05
3.05144e-05
3.14832e-05
3.34259e-05
3.56214e-05
3.75214e-05
3.76045e-05
3.79028e-05
3.80613e-05
3.91868e-05
4.06483e-05
4.25349e-05
4.41538e-05
4.58075e-05
4.68033e-05
4.77621e-05
4.81668e-05
4.86511e-05
4.87429e-05
4.91902e-05
4.98521e-05
5.10131e-05
5.24586e-05
5.40937e-05
5.52837e-05
5.58163e-05
5.48364e-05
5.31727e-05
5.12774e-05
4.931e-05
4.75276e-05
4.58966e-05
4.46327e-05
4.35104e-05
4.2654e-05
4.1791e-05
4.11231e-05
4.03962e-05
3.97318e-05
3.90411e-05
3.85902e-05
3.86329e-05
3.91962e-05
3.95242e-05
3.95686e-05
3.7624e-05
3.49409e-05
3.25966e-05
3.10653e-05
3.05001e-05
3.01332e-05
2.97049e-05
2.92883e-05
2.87185e-05
2.82596e-05
2.78917e-05
2.7416e-05
2.68124e-05
2.62756e-05
2.5829e-05
2.53583e-05
2.51388e-05
2.49636e-05
2.51755e-05
2.54274e-05
2.60865e-05
2.66642e-05
2.75225e-05
2.81855e-05
2.91475e-05
2.9857e-05
3.07448e-05
3.11513e-05
3.14583e-05
3.10713e-05
3.0577e-05
2.94745e-05
2.84566e-05
2.70155e-05
2.58225e-05
2.4388e-05
2.33204e-05
2.20325e-05
2.11626e-05
2.01289e-05
1.94867e-05
1.8678e-05
1.82686e-05
1.7704e-05
1.75101e-05
1.71628e-05
1.71663e-05
1.70224e-05
1.72029e-05
1.72407e-05
1.75759e-05
1.77807e-05
1.82656e-05
1.86178e-05
1.92276e-05
1.97149e-05
2.04392e-05
2.1043e-05
2.18687e-05
2.25734e-05
2.34892e-05
2.42832e-05
2.52714e-05
2.61507e-05
2.71966e-05
2.81433e-05
2.92405e-05
3.02449e-05
3.13761e-05
3.24238e-05
3.35833e-05
3.46633e-05
3.58345e-05
3.69379e-05
3.81178e-05
3.92241e-05
4.0395e-05
4.1511e-05
4.2662e-05
4.37623e-05
4.48917e-05
4.59691e-05
4.70602e-05
4.81074e-05
4.91557e-05
5.01595e-05
5.11541e-05
5.21067e-05
5.30491e-05
5.39385e-05
5.48091e-05
5.5637e-05
5.64341e-05
5.71846e-05
5.78923e-05
5.85591e-05
5.91814e-05
5.97549e-05
6.02807e-05
6.07697e-05
6.11922e-05
6.15896e-05
6.19003e-05
6.21847e-05
6.24057e-05
6.25825e-05
6.26922e-05
6.27543e-05
6.27474e-05
6.26981e-05
6.25739e-05
6.24095e-05
6.21833e-05
6.19022e-05
6.1592e-05
6.12007e-05
6.07681e-05
6.02887e-05
5.97619e-05
5.91975e-05
5.85708e-05
5.79186e-05
5.7214e-05
5.64724e-05
5.56919e-05
5.48756e-05
5.40189e-05
5.31416e-05
5.22187e-05
5.12801e-05
5.0302e-05
4.93225e-05
4.82994e-05
4.72704e-05
4.62191e-05
4.51591e-05
4.40823e-05
4.29969e-05
4.19062e-05
4.08127e-05
3.972e-05
3.86281e-05
3.75393e-05
3.64568e-05
3.53842e-05
3.43235e-05
3.32772e-05
3.22492e-05
3.12384e-05
3.02635e-05
2.92966e-05
2.83822e-05
2.74727e-05
2.66274e-05
2.57957e-05
2.50269e-05
2.428e-05
2.36049e-05
2.29524e-05
2.23804e-05
2.18365e-05
2.13795e-05
2.09543e-05
2.06233e-05
2.03327e-05
2.01365e-05
1.9993e-05
1.99423e-05
1.99582e-05
2.00654e-05
2.02537e-05
2.05316e-05
2.09011e-05
2.13561e-05
2.19125e-05
2.25464e-05
2.32898e-05
2.40922e-05
2.50023e-05
2.59255e-05
2.69109e-05
2.78418e-05
2.87574e-05
2.94519e-05
3.0012e-05
3.01599e-05
3.00406e-05
2.94986e-05
2.87544e-05
2.77557e-05
2.67875e-05
2.58129e-05
2.49915e-05
2.43055e-05
2.38006e-05
2.34411e-05
2.33219e-05
2.33705e-05
2.35168e-05
2.37685e-05
2.40593e-05
2.43913e-05
2.48793e-05
2.53166e-05
2.60414e-05
2.67187e-05
2.764e-05
2.84266e-05
2.93881e-05
2.9829e-05
3.03248e-05
3.0519e-05
3.10892e-05
3.22033e-05
3.42775e-05
3.65821e-05
3.85318e-05
3.86407e-05
3.88735e-05
3.90124e-05
4.00428e-05
4.15204e-05
4.33742e-05
4.50322e-05
4.66754e-05
4.77416e-05
4.86733e-05
4.90916e-05
4.95101e-05
4.95953e-05
4.99913e-05
5.06102e-05
5.169e-05
5.30586e-05
5.45656e-05
5.56821e-05
5.38142e-05
5.2884e-05
5.13249e-05
4.95385e-05
4.76371e-05
4.59459e-05
4.43787e-05
4.3162e-05
4.20807e-05
4.12573e-05
4.04247e-05
3.97856e-05
3.90819e-05
3.84128e-05
3.78008e-05
3.74255e-05
3.757e-05
3.81816e-05
3.8574e-05
3.87082e-05
3.67754e-05
3.4025e-05
3.15421e-05
2.99136e-05
2.92843e-05
2.89371e-05
2.85394e-05
2.82447e-05
2.77723e-05
2.73172e-05
2.69199e-05
2.64284e-05
2.59179e-05
2.53771e-05
2.49308e-05
2.45059e-05
2.42996e-05
2.41947e-05
2.43885e-05
2.46275e-05
2.52911e-05
2.58622e-05
2.66837e-05
2.72765e-05
2.81421e-05
2.87357e-05
2.95044e-05
2.9805e-05
3.00556e-05
2.96806e-05
2.92365e-05
2.82377e-05
2.7291e-05
2.59674e-05
2.48916e-05
2.35473e-05
2.25393e-05
2.13467e-05
2.05316e-05
1.95692e-05
1.8971e-05
1.82294e-05
1.7859e-05
1.73478e-05
1.71823e-05
1.68803e-05
1.69091e-05
1.68044e-05
1.70062e-05
1.70797e-05
1.74375e-05
1.76732e-05
1.81782e-05
1.85617e-05
1.91927e-05
1.97111e-05
2.04593e-05
2.10905e-05
2.19342e-05
2.26722e-05
2.36067e-05
2.44383e-05
2.54407e-05
2.6354e-05
2.74216e-05
2.83977e-05
2.9518e-05
3.05411e-05
3.16978e-05
3.2768e-05
3.39476e-05
3.50516e-05
3.6244e-05
3.7372e-05
3.85631e-05
3.97066e-05
4.08884e-05
4.20262e-05
4.31858e-05
4.43203e-05
4.54585e-05
4.65669e-05
4.76678e-05
4.87426e-05
4.97974e-05
5.08305e-05
5.18334e-05
5.28131e-05
5.37495e-05
5.46692e-05
5.55389e-05
5.63807e-05
5.71774e-05
5.79446e-05
5.86605e-05
5.93438e-05
5.99631e-05
6.05632e-05
6.10809e-05
6.15896e-05
6.20148e-05
6.24254e-05
6.2735e-05
6.30252e-05
6.32468e-05
6.34278e-05
6.35385e-05
6.3608e-05
6.35978e-05
6.35476e-05
6.34193e-05
6.32473e-05
6.30168e-05
6.27398e-05
6.24211e-05
6.20245e-05
6.15825e-05
6.10946e-05
6.05605e-05
5.99817e-05
5.93605e-05
5.86844e-05
5.79725e-05
5.72164e-05
5.64256e-05
5.55915e-05
5.47336e-05