/*--------------------------------*- C++ -*----------------------------------*\
| =========                 |                                                 |
| \\      /  F ield         | OpenFOAM: The Open Source CFD Toolbox           |
|  \\    /   O peration     | Version:  v2006                                 |
|   \\  /    A nd           | Website:  www.openfoam.com                      |
|    \\/     M anipulation  |                                                 |
\*---------------------------------------------------------------------------*/
FoamFile
{
    version     2.0;
    format      ascii;
    class       volVectorField;
    location    "160";
    object      U;
}
// * * * * * * * * * * * * * * * * * * * * * * * * * * * * * * * * * * * * * //

dimensions      [0 1 -1 0 0 0 0];


internalField   nonuniform List<vector> 
65536
(
(0.000616428 0.0913353 2.4934e-17)
(0.00231389 0.0792771 9.71862e-18)
(0.00335593 0.0711766 3.68539e-19)
(0.00300854 0.052952 -3.53775e-17)
(0.00286598 0.0335904 -9.03287e-17)
(0.00284086 0.0211163 2.74384e-17)
(0.00296943 0.0162036 1.90736e-16)
(0.00390381 0.0132411 -4.93233e-17)
(0.00569302 0.021931 1.82824e-17)
(0.00157488 0.012845 -2.79598e-17)
(-0.00546472 -0.007406 2.91405e-18)
(-0.0115684 -0.0356199 -6.55087e-17)
(-0.00867514 -0.0366686 1.06313e-17)
(-0.00642913 -0.0233451 -4.76855e-17)
(-0.0129211 -0.0314192 -1.77118e-16)
(-0.0152334 -0.0392591 -2.33991e-16)
(-0.00790124 -0.0242007 -5.44464e-17)
(0.00086974 -0.00428723 -6.6369e-17)
(0.00289587 0.00378365 -1.76848e-16)
(0.00488185 0.00728743 -9.54948e-17)
(0.00634478 0.0102278 -4.80811e-17)
(0.00834271 0.0102775 -1.64923e-16)
(0.00787351 0.0111755 1.15077e-17)
(0.00133775 0.00377255 -9.93125e-17)
(-0.00306473 -0.00441839 1.85194e-16)
(-0.00268467 -0.00338723 9.39039e-17)
(-0.00288415 -0.00383334 9.54679e-17)
(-0.00145933 -0.00201878 3.26744e-16)
(-0.00261652 -0.00273751 4.06036e-17)
(-0.0016495 -0.00352027 1.00554e-17)
(-0.000897836 -0.0024801 -1.69422e-18)
(-0.00238539 -0.00317578 -1.32842e-16)
(-0.00129858 -0.00231807 -2.00788e-17)
(-0.000975439 -0.0027612 1.38566e-16)
(-0.002246 -0.00283448 -1.25929e-16)
(-0.00257968 -0.00391208 8.50976e-17)
(-0.00344235 -0.00382204 -8.55604e-17)
(-0.00277017 -0.00367846 -9.30147e-17)
(0.0006761 -0.00109526 3.66866e-17)
(0.0101079 0.00495827 -2.47769e-17)
(0.0219838 0.01187 -7.65169e-18)
(0.0341189 0.0190276 -1.64534e-17)
(0.0465076 0.0251454 -2.85298e-17)
(0.0582482 0.0303504 -1.11196e-16)
(0.0696128 0.0345201 -3.83748e-17)
(0.0800848 0.0372625 8.86575e-18)
(0.0894168 0.0392318 -5.09802e-18)
(0.0980886 0.0411407 5.50061e-18)
(0.106381 0.0410884 7.45059e-19)
(0.113473 0.041655 -2.24095e-17)
(0.12079 0.0399689 -1.05731e-17)
(0.126891 0.0397627 -3.84783e-17)
(0.133028 0.036808 -6.41215e-17)
(0.138136 0.0360676 -1.08916e-16)
(0.14346 0.033018 -1.46582e-16)
(0.148263 0.030864 -1.71303e-16)
(0.152656 0.0274124 -1.75304e-16)
(0.156775 0.0242074 -1.58714e-16)
(0.160136 0.0212658 -1.24223e-16)
(0.163847 0.0178213 -8.90339e-17)
(0.166578 0.0134927 -4.50774e-17)
(0.169257 0.00996774 -1.58837e-17)
(0.171388 0.00599425 1.54023e-17)
(0.17349 0.00129598 2.36165e-17)
(0.174693 -0.0027991 3.29021e-17)
(0.176185 -0.00668394 1.92618e-17)
(0.176956 -0.0114986 5.49773e-18)
(0.177739 -0.0156191 -2.62343e-17)
(0.177939 -0.0201846 -5.80916e-17)
(0.178166 -0.0246081 -9.93937e-17)
(0.17768 -0.0290252 -1.32917e-16)
(0.177426 -0.0331616 -1.71901e-16)
(0.176409 -0.03788 -1.93578e-16)
(0.175547 -0.0418839 -2.20444e-16)
(0.174133 -0.0462715 -2.19045e-16)
(0.172711 -0.0503901 -2.30049e-16)
(0.17094 -0.0543327 -2.15758e-16)
(0.169077 -0.0585095 -2.17058e-16)
(0.166838 -0.0621433 -2.01987e-16)
(0.16454 -0.0659882 -1.94933e-16)
(0.161791 -0.0694516 -1.79964e-16)
(0.159075 -0.0729538 -1.73494e-16)
(0.155946 -0.076159 -1.56005e-16)
(0.152713 -0.079255 -1.45253e-16)
(0.149252 -0.0820581 -1.21285e-16)
(0.1456 -0.0847677 -1.07225e-16)
(0.141787 -0.0871893 -7.58059e-17)
(0.137825 -0.0894464 -6.06029e-17)
(0.133637 -0.0913992 -3.38154e-17)
(0.12933 -0.093112 -3.00172e-17)
(0.124865 -0.0945995 -1.40675e-17)
(0.120377 -0.0958706 -2.70322e-17)
(0.115709 -0.0968796 -3.48203e-17)
(0.111108 -0.0976181 -4.31395e-17)
(0.106288 -0.0981251 -6.3436e-17)
(0.101562 -0.0983896 -7.17863e-17)
(0.0966913 -0.0983491 -8.4054e-17)
(0.0919909 -0.0982874 -1.00212e-16)
(0.0872231 -0.0978382 -9.93255e-17)
(0.0826505 -0.0973991 -9.1775e-17)
(0.0780264 -0.0966158 -8.31639e-17)
(0.0736464 -0.0958777 -6.21266e-17)
(0.0691712 -0.0947764 -4.17075e-17)
(0.0648682 -0.0936007 -2.35406e-17)
(0.0605125 -0.0919801 3.23137e-18)
(0.0562618 -0.0902628 1.23302e-18)
(0.0519139 -0.0878364 8.3601e-18)
(0.0476748 -0.0853428 -2.38791e-17)
(0.0433659 -0.0821494 -2.54778e-17)
(0.0392811 -0.0789747 -7.25044e-17)
(0.0351498 -0.0751052 -7.40264e-17)
(0.0314057 -0.0715204 -1.14458e-16)
(0.0275458 -0.0670534 -1.25764e-16)
(0.0242543 -0.0632847 -1.68082e-16)
(0.0208593 -0.0585802 -1.98147e-16)
(0.0180252 -0.0549109 -2.15727e-16)
(0.015303 -0.0510553 -2.32037e-16)
(0.0131871 -0.0482502 -2.0568e-16)
(0.0111853 -0.0448051 -1.60742e-16)
(0.00926949 -0.0406426 -1.02396e-16)
(0.00734572 -0.0344158 -5.96319e-17)
(0.00509827 -0.026124 -5.27625e-17)
(0.00343221 -0.0206951 -4.87959e-17)
(0.00233021 -0.0168936 -1.04563e-16)
(0.00162885 -0.0130816 -1.55951e-16)
(0.000974791 -0.00859057 -1.64568e-16)
(0.0010877 -0.0050976 -2.24366e-16)
(0.000735171 0.00321599 -2.37341e-16)
(0.000528504 0.00674746 2.11799e-17)
(0.00119851 0.0123956 -2.57221e-17)
(0.00191754 0.0183961 6.90597e-17)
(0.00281476 0.0255239 -5.38946e-17)
(0.00367504 0.0288871 -4.17421e-17)
(0.00527363 0.0333381 -1.22504e-16)
(0.00737636 0.0403538 -1.1994e-16)
(0.00967155 0.0474714 -1.38079e-16)
(0.0119144 0.0533245 -7.003e-17)
(0.0141672 0.0575268 -3.86584e-17)
(0.0166406 0.0612663 3.98798e-18)
(0.0191391 0.0644454 6.64637e-18)
(0.0218881 0.0676177 3.72378e-17)
(0.0248391 0.0706367 5.49688e-17)
(0.0282421 0.0743759 1.07903e-16)
(0.0316668 0.077466 1.20302e-16)
(0.0356697 0.0815066 1.74454e-16)
(0.0395431 0.0847601 1.75021e-16)
(0.0438155 0.0883344 2.17329e-16)
(0.0481583 0.0913992 1.99236e-16)
(0.0526322 0.0943368 2.30257e-16)
(0.0572409 0.0969979 2.06394e-16)
(0.0619112 0.099404 2.17969e-16)
(0.0666193 0.101397 1.87071e-16)
(0.0715057 0.103281 1.87356e-16)
(0.0762577 0.104661 1.49971e-16)
(0.081348 0.106097 1.26847e-16)
(0.0861671 0.106934 8.08866e-17)
(0.0913501 0.107806 4.28158e-17)
(0.0962875 0.10825 -1.39934e-17)
(0.10136 0.108514 -4.80274e-17)
(0.106296 0.108364 -1.10417e-16)
(0.111224 0.10804 -1.4866e-16)
(0.116126 0.107414 -1.89158e-16)
(0.120916 0.106485 -2.19769e-16)
(0.125623 0.105334 -2.44145e-16)
(0.130182 0.103885 -2.49682e-16)
(0.134747 0.102299 -2.63806e-16)
(0.139048 0.100292 -2.33426e-16)
(0.143444 0.0983076 -2.21056e-16)
(0.147462 0.0958069 -1.72235e-16)
(0.1517 0.0933999 -1.44127e-16)
(0.155481 0.0905139 -8.72401e-17)
(0.159484 0.0877808 -5.36196e-17)
(0.163026 0.0845614 -1.12332e-18)
(0.16676 0.0814659 3.47005e-17)
(0.170023 0.0779853 8.15726e-17)
(0.173345 0.0744652 1.13849e-16)
(0.176223 0.0706783 1.55656e-16)
(0.179085 0.0667104 1.78743e-16)
(0.18146 0.0627297 2.15505e-16)
(0.18386 0.0583234 2.24358e-16)
(0.185707 0.0542987 2.57228e-16)
(0.187665 0.0497063 2.56203e-16)
(0.189045 0.0452545 2.78643e-16)
(0.190374 0.0407262 2.66694e-16)
(0.191326 0.0360184 2.73858e-16)
(0.191991 0.0311007 2.4961e-16)
(0.192372 0.026849 2.42441e-16)
(0.192491 0.0214734 2.10715e-16)
(0.192274 0.0171415 1.92569e-16)
(0.191671 0.0120907 1.55237e-16)
(0.191043 0.00768632 1.35147e-16)
(0.189672 0.00253309 9.73808e-17)
(0.188654 -0.00131793 8.15189e-17)
(0.186587 -0.00680856 4.75567e-17)
(0.184767 -0.0102374 3.97475e-17)
(0.182335 -0.0148569 1.10953e-17)
(0.179827 -0.0195017 1.25178e-17)
(0.17638 -0.0240045 -1.26868e-17)
(0.17307 -0.0270653 -2.79058e-18)
(0.169216 -0.0306436 -2.4059e-17)
(0.16534 -0.0336984 -8.66016e-18)
(0.16067 -0.0371756 -2.58777e-17)
(0.155965 -0.0399509 -1.24178e-17)
(0.150407 -0.0431659 -2.70943e-17)
(0.144879 -0.0452427 -1.93204e-17)
(0.138455 -0.0471084 -3.23817e-17)
(0.132117 -0.047268 -2.56446e-17)
(0.125156 -0.048481 -4.53045e-17)
(0.117274 -0.049069 -3.99076e-17)
(0.10886 -0.0489917 -6.08345e-17)
(0.0992261 -0.0470295 -5.51455e-17)
(0.0899742 -0.0446843 -7.53124e-17)
(0.0779059 -0.0412567 -5.02299e-17)
(0.0657404 -0.0361146 -6.18089e-17)
(0.0500617 -0.0280005 2.17793e-18)
(0.0345764 -0.0187421 4.56031e-17)
(0.011808 -0.0032535 8.33508e-17)
(-0.00981557 0.00880945 2.3663e-16)
(-0.00995593 0.00848781 1.24208e-16)
(-0.00917797 0.0088586 -8.6167e-17)
(-0.00729564 0.00753128 -1.21476e-16)
(-0.00633211 0.00631507 2.03263e-16)
(-0.00492223 0.00467981 -8.78994e-17)
(-0.00480474 0.00507018 -7.46714e-17)
(-0.00487442 0.00522991 1.77024e-16)
(-0.00387809 0.00608383 -1.50383e-17)
(-0.00517826 0.00762825 -5.2835e-17)
(-0.00679504 0.00919459 -1.7675e-17)
(-0.00729757 0.0103407 -2.40993e-16)
(-0.00436643 0.00577871 -1.10054e-16)
(-0.000539981 -0.00136906 -1.28011e-18)
(0.00805486 -0.0161011 -3.95679e-17)
(0.0190446 -0.0279031 4.42681e-17)
(0.0172025 -0.0238665 -4.13272e-17)
(0.0142262 -0.0254721 3.64446e-17)
(0.0131053 -0.0209206 -3.66198e-17)
(0.00951265 -0.0131993 -6.51779e-17)
(0.00612996 -0.0104052 -2.8765e-17)
(0.00431724 -0.00746407 6.7281e-17)
(0.00212703 -0.00102313 3.82633e-17)
(-0.00343409 0.0144539 -6.2867e-17)
(-0.00905221 0.0400173 -7.97525e-17)
(-0.0197152 0.0691574 -1.26381e-16)
(-0.0281373 0.0921311 -1.35454e-16)
(-0.0266774 0.0993482 -1.29522e-16)
(-0.0275035 0.103928 -5.93517e-17)
(-0.0247305 0.114053 -6.34255e-17)
(-0.0240964 0.120235 -1.24499e-16)
(-0.0214217 0.123879 -1.42079e-16)
(-0.0200556 0.123198 -1.62659e-16)
(-0.015356 0.122754 -1.34016e-16)
(-0.0133675 0.119325 -8.67347e-17)
(-0.00962234 0.11759 -3.19135e-17)
(-0.00701566 0.11254 -3.61748e-17)
(-0.00405775 0.107295 6.10869e-17)
(-0.00154683 0.0987124 1.3459e-17)
(-0.00285828 0.0943343 6.28752e-17)
(-0.00153195 0.0829531 7.201e-17)
(-0.00104075 0.071848 -1.7499e-17)
(-0.00277625 0.0558033 -9.69233e-17)
(-0.00243084 0.0387711 1.51388e-17)
(-0.000740998 0.0251795 6.34938e-17)
(-6.62405e-06 0.0144474 1.25183e-16)
(0.00107767 0.00606401 -1.03175e-17)
(0.00242371 0.0159543 -6.62987e-17)
(-0.00490783 0.00513104 -3.33862e-18)
(-0.0117571 -0.0107067 6.81253e-17)
(-0.0140479 -0.0281582 -4.74684e-17)
(-0.00975306 -0.0342769 -5.03287e-17)
(-0.0116599 -0.032393 1.02872e-16)
(-0.0167315 -0.0346005 -8.24207e-17)
(-0.0150545 -0.037446 -9.97996e-17)
(-0.00769768 -0.0309317 -1.24025e-16)
(0.000266723 -0.0123184 -9.72635e-17)
(0.00152297 0.00120067 -7.85074e-17)
(0.00329997 0.00556538 -3.35878e-17)
(0.0047879 0.00797534 -1.70098e-16)
(0.00623432 0.00866244 -6.80702e-17)
(0.00482041 0.010593 1.91289e-17)
(-0.000356898 0.0064857 -1.7914e-17)
(-0.00367866 -0.00122005 -1.25183e-16)
(-0.00307372 -0.00268147 -4.91615e-17)
(-0.00292721 -0.00308022 1.04341e-16)
(-0.00304606 -0.00250863 3.48125e-17)
(-0.00390878 -0.00282913 1.23637e-16)
(-0.00271931 -0.00345134 -1.95591e-16)
(-0.00255492 -0.00296221 -7.52843e-17)
(-0.00329964 -0.00290249 -1.026e-16)
(-0.00293879 -0.0026127 -6.86773e-18)
(-0.00289977 -0.00309228 -6.69369e-17)
(-0.0037894 -0.00267236 -8.61347e-18)
(-0.00353041 -0.00293166 -7.3579e-18)
(-0.00329389 -0.00184713 3.93267e-17)
(-0.00047234 7.5591e-05 -3.08018e-17)
(0.00794435 0.0029838 5.88132e-17)
(0.0199875 0.009103 1.15998e-17)
(0.0332276 0.0155075 -2.72192e-17)
(0.0462621 0.0229374 -1.98867e-17)
(0.0592571 0.0292656 -6.46932e-17)
(0.0714949 0.034629 -8.95116e-17)
(0.0829702 0.0394084 -2.35444e-17)
(0.0942764 0.041246 1.10135e-17)
(0.103742 0.0441262 -1.56723e-17)
(0.112706 0.0455839 8.6477e-18)
(0.121361 0.0452094 -9.11355e-18)
(0.128436 0.0459684 -1.02842e-17)
(0.136006 0.0441681 -8.624e-18)
(0.142351 0.0433613 -5.08371e-17)
(0.148552 0.0408454 -8.1044e-17)
(0.153973 0.0398728 -1.39944e-16)
(0.159229 0.036612 -1.74947e-16)
(0.164309 0.0337915 -1.91959e-16)
(0.168605 0.0304787 -1.83164e-16)
(0.173088 0.0268834 -1.52886e-16)
(0.176575 0.0234157 -1.11927e-16)
(0.180085 0.0195853 -6.47873e-17)
(0.182904 0.0149732 -1.75682e-17)
(0.185752 0.0109935 1.65563e-17)
(0.187619 0.00669986 4.5097e-17)
(0.189719 0.00182348 5.20551e-17)
(0.191087 -0.00260173 5.39446e-17)
(0.192381 -0.00698685 3.2476e-17)
(0.193006 -0.0120829 7.9501e-18)
(0.193779 -0.0165226 -3.61542e-17)
(0.193757 -0.021471 -7.78246e-17)
(0.193891 -0.0261467 -1.25413e-16)
(0.193277 -0.0309447 -1.65985e-16)
(0.192749 -0.035507 -1.9901e-16)
(0.191582 -0.0402892 -2.18157e-16)
(0.190549 -0.044813 -2.28895e-16)
(0.18887 -0.04936 -2.25679e-16)
(0.1873 -0.0538532 -2.18255e-16)
(0.185194 -0.0581084 -2.04892e-16)
(0.183157 -0.0624429 -1.93593e-16)
(0.180575 -0.0665053 -1.76604e-16)
(0.178009 -0.0705129 -1.70252e-16)
(0.174918 -0.0742608 -1.62609e-16)
(0.171913 -0.0779539 -1.54854e-16)
(0.168432 -0.0813689 -1.48779e-16)
(0.164886 -0.0847067 -1.38092e-16)
(0.161 -0.0877637 -1.29032e-16)
(0.157065 -0.0905496 -1.0268e-16)
(0.152846 -0.0931533 -8.73035e-17)
(0.148571 -0.0954672 -5.97993e-17)
(0.143942 -0.0976196 -4.18764e-17)
(0.139281 -0.0994186 -1.61655e-17)
(0.13439 -0.101034 -1.59205e-17)
(0.129535 -0.102348 -1.58983e-17)
(0.124494 -0.103405 -1.75989e-17)
(0.119473 -0.104186 -3.52173e-17)
(0.114301 -0.104651 -3.39396e-17)
(0.109158 -0.104966 -6.72221e-17)
(0.103945 -0.104874 -6.24698e-17)
(0.0989037 -0.104766 -8.74539e-17)
(0.0937592 -0.104314 -7.62871e-17)
(0.0888415 -0.10381 -1.14693e-16)
(0.0838595 -0.102972 -9.69086e-17)
(0.07915 -0.102122 -1.21043e-16)
(0.0743345 -0.100887 -9.67068e-17)
(0.0697721 -0.0995063 -1.19719e-16)
(0.065071 -0.0976667 -1.02795e-16)
(0.0605907 -0.0956461 -9.19736e-17)
(0.0558969 -0.0929429 -6.23563e-17)
(0.0514672 -0.0901395 -3.80744e-17)
(0.0468774 -0.0867152 -5.21625e-19)
(0.0426223 -0.0832835 2.27884e-17)
(0.0382677 -0.0791945 2.98983e-17)
(0.0343409 -0.0753735 3.26681e-17)
(0.0302902 -0.0707199 -1.42296e-17)
(0.0267908 -0.0667341 -4.65779e-17)
(0.0231675 -0.0618184 -1.22588e-16)
(0.0200374 -0.0579707 -1.48911e-16)
(0.0171406 -0.0538657 -1.9753e-16)
(0.0147283 -0.0507143 -1.69539e-16)
(0.0126321 -0.0466474 -1.82606e-16)
(0.010955 -0.04185 -1.14844e-16)
(0.00939022 -0.0353012 -1.23691e-16)
(0.00701669 -0.0272499 -4.03549e-17)
(0.00469508 -0.0216371 -3.31444e-17)
(0.00338659 -0.0170947 5.5572e-17)
(0.00269012 -0.0127571 -1.52057e-16)
(0.00205133 -0.00821509 -8.33664e-17)
(0.00217439 -0.00354653 -1.75036e-16)
(0.00211428 0.00235981 1.08413e-16)
(0.00192987 0.00792795 3.82034e-16)
(0.00264573 0.0132072 3.04412e-16)
(0.00363211 0.0194466 3.12959e-16)
(0.00430853 0.0264067 2.68405e-16)
(0.0048863 0.0301741 1.03768e-16)
(0.0068966 0.0349785 5.22413e-17)
(0.00954951 0.0420692 -1.37455e-16)
(0.0117455 0.0490602 -2.55747e-16)
(0.0137532 0.0552922 -3.838e-16)
(0.0160054 0.0599853 -3.49053e-16)
(0.0184995 0.0642244 -2.72609e-16)
(0.0211579 0.0678157 -1.42533e-16)
(0.0241358 0.0714126 -2.28148e-17)
(0.0273144 0.0745025 9.46761e-17)
(0.0309709 0.0786862 1.72851e-16)
(0.0346052 0.0820868 2.49132e-16)
(0.0389453 0.0864077 2.87366e-16)
(0.0431277 0.0900404 3.10227e-16)
(0.0477581 0.0938398 3.26661e-16)
(0.0523064 0.0972507 3.09324e-16)
(0.0571622 0.100379 3.19166e-16)
(0.0620477 0.103257 2.88438e-16)
(0.0670711 0.105889 2.91174e-16)
(0.0720777 0.108007 2.53407e-16)
(0.0772937 0.110044 2.50274e-16)
(0.082365 0.111474 1.92026e-16)
(0.087765 0.113005 1.95263e-16)
(0.0929084 0.113856 1.28225e-16)
(0.0983417 0.114789 1.13528e-16)
(0.103665 0.115244 2.25428e-17)
(0.109048 0.115546 -4.73753e-18)
(0.114361 0.115458 -8.12087e-17)
(0.119648 0.115079 -1.08951e-16)
(0.124907 0.114542 -1.78255e-16)
(0.130078 0.113536 -1.92826e-16)
(0.135224 0.112446 -2.28548e-16)
(0.140149 0.110831 -2.28229e-16)
(0.145183 0.109248 -2.33121e-16)
(0.149831 0.107087 -2.15575e-16)
(0.154731 0.105015 -1.84063e-16)
(0.15905 0.102366 -1.42078e-16)
(0.163763 0.0998188 -1.06101e-16)
(0.167859 0.0967937 -6.26314e-17)
(0.172345 0.0938061 -2.45755e-17)
(0.176177 0.090477 1.54742e-17)
(0.180354 0.0871107 4.28838e-17)
(0.183937 0.0833944 8.25162e-17)
(0.187664 0.0795615 1.05434e-16)
(0.19084 0.0755054 1.42513e-16)
(0.194057 0.0713087 1.58481e-16)
(0.196704 0.0670189 1.91422e-16)
(0.199397 0.0624911 2.01202e-16)
(0.201596 0.0579443 2.2526e-16)
(0.203697 0.0531762 2.28621e-16)
(0.205427 0.048281 2.46092e-16)
(0.206935 0.0433861 2.38112e-16)
(0.208037 0.0384136 2.43533e-16)
(0.208971 0.0332363 2.26143e-16)
(0.20948 0.028401 2.17348e-16)
(0.209653 0.0228982 1.87033e-16)
(0.209703 0.0181304 1.68596e-16)
(0.209118 0.0127561 1.29858e-16)
(0.208613 0.00788 1.08561e-16)
(0.207363 0.00234371 6.98454e-17)
(0.206346 -0.00193291 5.17302e-17)
(0.204332 -0.00766717 1.68106e-17)
(0.202744 -0.0116338 7.04607e-18)
(0.199921 -0.016701 -2.16867e-17)
(0.197448 -0.0212681 -2.11288e-17)
(0.194234 -0.0262861 -4.28522e-17)
(0.191034 -0.0300079 -3.71746e-17)
(0.18689 -0.0344349 -5.09165e-17)
(0.182995 -0.0373375 -4.05091e-17)
(0.178101 -0.0411943 -4.76677e-17)
(0.173305 -0.0440756 -3.66687e-17)
(0.167581 -0.0475366 -4.0951e-17)
(0.162133 -0.0499049 -3.15049e-17)
(0.155574 -0.0525101 -3.3583e-17)
(0.149119 -0.0529834 -3.81173e-17)
(0.141799 -0.0534656 -3.49364e-17)
(0.133891 -0.054256 -4.43861e-17)
(0.125187 -0.0547203 -4.32883e-17)
(0.115526 -0.0534846 -5.97648e-17)
(0.106037 -0.050522 -5.10767e-17)
(0.0943576 -0.0471336 -7.64024e-17)
(0.0825896 -0.0418516 -4.72793e-17)
(0.0682289 -0.0347975 -4.73224e-17)
(0.0534615 -0.0254931 6.218e-17)
(0.0370199 -0.0143972 2.96257e-17)
(0.0130776 -0.00444978 8.17157e-17)
(-0.00387663 0.00212237 1.13608e-16)
(-0.00986521 0.00522376 -1.22794e-16)
(-0.00834895 0.00458533 -2.59269e-17)
(-0.00745847 0.00556412 -6.7731e-17)
(-0.00711927 0.00504034 1.10721e-16)
(-0.00618863 0.00511315 -9.25945e-17)
(-0.00593841 0.00523941 -4.60779e-18)
(-0.00506567 0.00638209 -1.23675e-17)
(-0.00549625 0.00722814 9.49218e-17)
(-0.00616098 0.00775812 -4.12909e-17)
(-0.00675851 0.00786487 -1.19381e-17)
(-0.00682555 0.00536373 -9.11256e-17)
(-0.00442454 -0.00180462 -9.43418e-17)
(0.00365363 -0.0182242 1.23442e-16)
(0.013529 -0.026334 8.25034e-17)
(0.0144968 -0.023792 6.60407e-18)
(0.0119528 -0.0234252 1.73675e-17)
(0.0115344 -0.0196928 6.40658e-17)
(0.00993517 -0.0150998 -5.34504e-17)
(0.00648538 -0.0111612 -5.02754e-17)
(0.00504882 -0.00646479 3.49227e-17)
(0.00323867 0.001668 1.0303e-17)
(-0.004192 0.0268212 -1.12967e-16)
(-0.0104121 0.0590417 -1.96256e-16)
(-0.0200324 0.0902963 -7.47806e-17)
(-0.028566 0.108032 -1.25374e-16)
(-0.0304724 0.110874 2.82713e-17)
(-0.0310016 0.120119 -3.38618e-18)
(-0.0279788 0.129243 -7.77294e-17)
(-0.0273285 0.133484 -1.95448e-16)
(-0.0245187 0.136392 -1.30001e-16)
(-0.0231576 0.134629 -2.58605e-16)
(-0.0193962 0.132286 -1.03294e-16)
(-0.0161482 0.127898 -2.55546e-16)
(-0.0126927 0.124658 -1.53799e-16)
(-0.009966 0.118703 -1.26281e-16)
(-0.00739723 0.111918 1.11203e-17)
(-0.00473714 0.10298 2.54804e-17)
(-0.00421666 0.0944074 1.54089e-16)
(-0.00278723 0.0841912 1.2447e-16)
(-0.00298177 0.0732565 6.26418e-17)
(-0.00432689 0.0587712 1.09289e-16)
(-0.00358726 0.0437931 1.99435e-16)
(-0.00139177 0.032145 1.54523e-16)
(-0.0010617 0.0198295 8.7743e-18)
(0.00159115 -0.00102452 -4.4374e-17)
(0.0021284 0.00940613 -6.23205e-17)
(-0.00796484 0.00220223 1.12584e-17)
(-0.0158045 -0.0125968 8.48779e-18)
(-0.0149754 -0.0263059 -5.68298e-17)
(-0.00971426 -0.0349419 -5.92907e-17)
(-0.011075 -0.0353711 9.48436e-18)
(-0.0152674 -0.0356565 3.86449e-17)
(-0.0112896 -0.0375129 -1.65056e-16)
(-0.00244677 -0.0335198 -4.81896e-17)
(0.00179069 -0.0187394 3.54546e-17)
(0.00444411 -0.0049112 -1.73827e-16)
(0.00537142 0.00247113 -5.04681e-17)
(0.00571061 0.00612655 -1.21753e-16)
(0.00504886 0.00834239 1.54965e-17)
(0.00420268 0.00975287 9.01529e-17)
(-0.000696985 0.00699054 1.01131e-16)
(-0.00281742 -0.000353777 -6.58755e-17)
(-0.00187625 -0.00349686 2.5545e-17)
(-0.00214925 -0.00425919 -8.46169e-17)
(-0.00221248 -0.00397121 8.32698e-17)
(-0.00264186 -0.00424206 2.05052e-18)
(-0.00284611 -0.00368831 1.15417e-17)
(-0.00277907 -0.00304118 -5.07078e-17)
(-0.00286119 -0.0033675 5.43215e-17)
(-0.00273271 -0.00300423 -2.02719e-17)
(-0.0031496 -0.00255033 -4.98436e-17)
(-0.00302852 -0.00235804 -6.32814e-17)
(-0.0027611 -0.00298009 -3.78048e-17)
(-0.000693966 -0.00299642 3.86042e-17)
(0.00634183 -0.00037325 7.92708e-17)
(0.0182647 0.0041438 5.43751e-17)
(0.0317733 0.0115618 -3.35622e-17)
(0.0456453 0.0185809 -2.49233e-17)
(0.059439 0.0261899 -4.02277e-17)
(0.0726672 0.0326115 -7.416e-17)
(0.0852073 0.0381113 -6.79841e-17)
(0.0965032 0.0429237 1.24439e-17)
(0.10777 0.0448574 8.06814e-18)
(0.117296 0.0479214 -1.38498e-17)
(0.126268 0.0484504 1.19351e-17)
(0.13475 0.0487271 -4.10675e-19)
(0.142313 0.0480572 1.29676e-17)
(0.149108 0.0474581 -6.54828e-20)
(0.156056 0.0449079 -5.61711e-17)
(0.161808 0.0436801 -1.06405e-16)
(0.167581 0.0403798 -1.70302e-16)
(0.172268 0.0383831 -1.96337e-16)
(0.177559 0.0342639 -2.04955e-16)
(0.181588 0.0317213 -1.85977e-16)
(0.185822 0.027534 -1.36553e-16)
(0.189203 0.0236198 -8.43898e-17)
(0.192621 0.0194407 -2.03336e-17)
(0.195156 0.0153594 2.89462e-17)
(0.197888 0.0104931 7.33272e-17)
(0.19963 0.00581193 9.67236e-17)
(0.201524 0.00121273 1.05066e-16)
(0.202605 -0.00372105 9.39619e-17)
(0.203696 -0.00858072 6.18786e-17)
(0.204169 -0.0132206 1.82367e-17)
(0.204642 -0.0186076 -3.94018e-17)
(0.204417 -0.0232286 -9.53966e-17)
(0.204264 -0.0283921 -1.49785e-16)
(0.203343 -0.0331198 -1.87379e-16)
(0.202601 -0.0380428 -2.1036e-16)
(0.20115 -0.0428361 -2.10257e-16)
(0.199802 -0.0476152 -1.93903e-16)
(0.197852 -0.052281 -1.72179e-16)
(0.195979 -0.0568056 -1.44595e-16)
(0.193554 -0.0612448 -1.1491e-16)
(0.191193 -0.0656021 -9.41306e-17)
(0.188244 -0.0696633 -7.64089e-17)
(0.185401 -0.0737043 -7.67306e-17)
(0.181963 -0.0773951 -7.19798e-17)
(0.178681 -0.0810749 -8.85608e-17)
(0.174831 -0.0845131 -9.11885e-17)
(0.171028 -0.0877506 -1.0726e-16)
(0.166897 -0.0907056 -1.08094e-16)
(0.162682 -0.0935332 -1.10294e-16)
(0.15824 -0.0959308 -9.93188e-17)
(0.153663 -0.0983078 -8.6281e-17)
(0.148876 -0.100217 -5.90869e-17)
(0.143995 -0.102028 -5.1459e-17)
(0.138941 -0.103493 -1.46916e-17)
(0.133877 -0.104762 -9.23674e-18)
(0.128642 -0.105698 1.73349e-17)
(0.123435 -0.106311 2.02741e-17)
(0.118048 -0.106704 3.75333e-17)
(0.1127 -0.106808 4.00134e-17)
(0.107253 -0.106653 5.45909e-17)
(0.10189 -0.106311 5.71555e-17)
(0.096496 -0.105628 3.6918e-17)
(0.0912308 -0.104818 -1.10573e-17)
(0.0859692 -0.103673 -1.01356e-16)
(0.0809454 -0.102454 -2.02062e-16)
(0.0758918 -0.100927 -3.34777e-16)
(0.0710737 -0.0992439 -4.04054e-16)
(0.0662947 -0.0971661 -4.3755e-16)
(0.0616817 -0.0949565 -3.65035e-16)
(0.0570857 -0.0921878 -2.37812e-16)
(0.0526711 -0.0894534 -4.34646e-17)
(0.0482455 -0.0861917 1.21451e-16)
(0.0440259 -0.0828647 2.94751e-16)
(0.0398162 -0.0790053 2.94832e-16)
(0.0358726 -0.0751608 2.95278e-16)
(0.0319037 -0.0707628 1.4595e-16)
(0.0282886 -0.0664911 6.64944e-17)
(0.0246424 -0.0616247 -4.38445e-17)
(0.021232 -0.0573824 -2.06976e-17)
(0.0181289 -0.0532537 -5.6345e-17)
(0.0156755 -0.0498293 -5.62473e-17)
(0.0138154 -0.0458662 -1.55291e-16)
(0.0123329 -0.0412007 -2.15131e-16)
(0.011227 -0.0351649 -1.97638e-16)
(0.00887954 -0.0276978 -7.1877e-17)
(0.00623146 -0.022041 -6.91616e-17)
(0.00460927 -0.0171466 -1.17553e-17)
(0.00377407 -0.0122204 -1.22051e-16)
(0.00318655 -0.00735838 -2.38746e-16)
(0.00364116 -0.00304835 -1.94739e-16)
(0.0035336 0.00316352 -1.29078e-16)
(0.00321513 0.00836227 1.45192e-16)
(0.00410585 0.0135952 -2.79363e-16)
(0.00521542 0.0195866 -2.12069e-16)
(0.0055249 0.0260826 1.64981e-17)
(0.00599319 0.0299498 1.14504e-16)
(0.00854819 0.0350237 2.54629e-16)
(0.0112994 0.0421713 3.05707e-16)
(0.013293 0.0484228 2.2765e-16)
(0.014925 0.0539124 -7.49349e-17)
(0.016798 0.0580695 -2.95795e-16)
(0.0190679 0.0618726 -3.61794e-16)
(0.0216198 0.0654789 -2.79105e-16)
(0.0245938 0.0694634 -1.70112e-16)
(0.0281189 0.0732897 -3.68506e-17)
(0.0320341 0.0777676 6.12547e-17)
(0.03615 0.0820116 1.28925e-16)
(0.0406119 0.0864296 1.51186e-16)
(0.0449972 0.0905083 1.8761e-16)
(0.0495947 0.0943504 1.56512e-16)
(0.0542805 0.0978602 1.45571e-16)
(0.0591174 0.101031 1.03479e-16)
(0.0640003 0.10388 5.50864e-17)
(0.0690027 0.106599 3.29221e-17)
(0.0740172 0.108742 -3.78524e-18)
(0.0792086 0.11078 -1.6794e-18)
(0.0843147 0.112263 -4.55205e-18)
(0.0897272 0.113784 -1.24331e-18)
(0.0949284 0.114774 -6.36626e-18)
(0.10043 0.115614 -7.85671e-18)
(0.105838 0.116213 -2.74838e-17)
(0.111317 0.116608 -3.05965e-17)
(0.116858 0.11675 -5.49437e-17)
(0.122243 0.116463 -5.99513e-17)
(0.127913 0.116179 -8.87798e-17)
(0.133185 0.115328 -8.58157e-17)
(0.138845 0.114571 -9.88986e-17)
(0.143917 0.113073 -7.79675e-17)
(0.149471 0.111845 -7.86408e-17)
(0.154361 0.109848 -3.18556e-17)
(0.159785 0.108051 -2.54069e-17)
(0.164469 0.105509 2.17935e-17)
(0.169632 0.103134 3.15025e-17)
(0.174106 0.100134 6.59481e-17)
(0.178965 0.0973143 6.88007e-17)
(0.183192 0.0939731 8.9086e-17)
(0.187672 0.0906875 8.26345e-17)
(0.191588 0.0869718 1.00035e-16)
(0.19561 0.0832016 8.77114e-17)
(0.199166 0.0790609 1.02617e-16)
(0.202668 0.0748724 9.31891e-17)
(0.205726 0.0704023 1.02521e-16)
(0.208626 0.0658534 9.19427e-17)
(0.211184 0.0611456 9.95243e-17)
(0.213545 0.0562651 9.23938e-17)
(0.215543 0.0512866 9.66322e-17)
(0.217324 0.0462931 9.25879e-17)
(0.218803 0.0410641 9.87967e-17)
(0.219832 0.0358447 8.58017e-17)
(0.220737 0.0305097 7.9642e-17)
(0.221055 0.0251981 5.56765e-17)
(0.2214 0.0197207 4.08035e-17)
(0.220942 0.0145199 1.15439e-17)
(0.220714 0.00897101 -6.016e-18)
(0.219618 0.00410937 -3.64245e-17)
(0.218889 -0.00174189 -5.15968e-17)
(0.217031 -0.00648736 -7.82432e-17)
(0.215571 -0.011854 -8.67812e-17)
(0.213075 -0.0165087 -1.07188e-16)
(0.210793 -0.0217568 -1.06758e-16)
(0.207636 -0.0262259 -1.1736e-16)
(0.20439 -0.0314279 -1.1019e-16)
(0.200784 -0.0348114 -1.12547e-16)
(0.197049 -0.0390054 -1.03242e-16)
(0.192259 -0.0426987 -9.99007e-17)
(0.187619 -0.0462738 -8.19579e-17)
(0.182075 -0.0493429 -7.06136e-17)
(0.176632 -0.0523368 -5.9575e-17)
(0.170174 -0.0547853 -4.95643e-17)
(0.163682 -0.0571985 -4.63921e-17)
(0.156521 -0.0574761 -3.93839e-17)
(0.148652 -0.0583037 -4.7982e-17)
(0.140044 -0.0582141 -3.61786e-17)
(0.130776 -0.0580138 -5.9333e-17)
(0.121121 -0.0553047 -4.60948e-17)
(0.110173 -0.0519277 -7.0791e-17)
(0.0981148 -0.046805 -4.56523e-17)
(0.0851372 -0.0405206 -6.49707e-17)
(0.070152 -0.0308679 3.76543e-17)
(0.0564498 -0.0213132 5.00171e-17)
(0.0349694 -0.0106391 8.98331e-17)
(0.011228 -0.000357681 2.75208e-17)
(-0.00393698 0.00612996 -3.49771e-17)
(-0.0054579 0.00462825 2.97829e-17)
(-0.00628569 0.00512367 3.10195e-17)
(-0.00599134 0.00539992 3.04816e-17)
(-0.00546411 0.00568365 -1.91922e-17)
(-0.00507215 0.00611935 -1.02947e-16)
(-0.00546016 0.00621487 -8.43794e-20)
(-0.00540265 0.00720257 -5.92114e-17)
(-0.0054289 0.00807835 -3.35531e-17)
(-0.00721321 0.0074805 -7.70666e-17)
(-0.00809873 0.00560097 -3.72582e-17)
(-0.00806123 -0.00142373 -5.36024e-17)
(0.00114059 -0.0156543 1.5309e-16)
(0.0128269 -0.0231777 4.47149e-17)
(0.0149337 -0.0209257 5.55111e-17)
(0.0155407 -0.0194697 -3.02132e-17)
(0.0140705 -0.016589 -7.44461e-17)
(0.0101505 -0.0137721 1.69338e-17)
(0.00737965 -0.00836216 -8.72076e-18)
(0.00573384 0.000454795 8.21911e-17)
(0.00727501 0.0119343 -5.70647e-17)
(0.00276254 0.0385476 -5.76096e-17)
(-0.0086288 0.0771004 -2.0628e-16)
(-0.0183111 0.104575 -1.19823e-16)
(-0.0260298 0.11118 2.42255e-16)
(-0.0322241 0.119833 1.18162e-17)
(-0.0279528 0.133334 1.88725e-16)
(-0.0286936 0.137542 -1.75548e-16)
(-0.0267909 0.139484 -3.44417e-16)
(-0.025846 0.138686 -7.18816e-17)
(-0.022113 0.136472 -1.70907e-16)
(-0.0193445 0.132447 -2.01276e-16)
(-0.0157045 0.128539 -1.91815e-16)
(-0.0127579 0.123768 -4.12621e-16)
(-0.010486 0.118111 3.98912e-16)
(-0.0080016 0.111157 -2.08209e-16)
(-0.00576043 0.103127 2.31478e-16)
(-0.00742665 0.0945146 8.25165e-17)
(-0.00641794 0.0844628 -4.88066e-17)
(-0.00708099 0.0745163 9.84486e-17)
(-0.00910196 0.0618125 9.26342e-17)
(-0.00780792 0.0485151 1.54598e-16)
(-0.00470189 0.0364029 2.09387e-16)
(-0.00628853 0.0260298 7.58072e-17)
(-0.00286367 -0.00201212 -3.17657e-16)
(0.000236244 0.0058333 -7.1297e-17)
(-0.0123282 -0.000607063 2.12752e-16)
(-0.0202911 -0.0142147 9.81632e-18)
(-0.0181354 -0.023772 1.71801e-16)
(-0.0117962 -0.033305 -1.17704e-16)
(-0.0130009 -0.0337098 -5.1185e-17)
(-0.0166443 -0.0343294 -2.30858e-16)
(-0.0112277 -0.0350133 -2.26302e-17)
(-0.000405873 -0.0327182 -7.37849e-17)
(0.00286948 -0.021899 -8.26222e-17)
(0.00369655 -0.00823471 -1.45176e-16)
(0.00434699 0.00140309 -2.76156e-17)
(0.0045612 0.00588296 -6.45711e-17)
(0.00443559 0.00769954 -3.78019e-17)
(0.00251196 0.0098711 2.36439e-17)
(-0.0023143 0.00811836 7.52899e-17)
(-0.0047182 0.00139634 -1.60459e-16)
(-0.00272926 -0.00289221 2.77059e-16)
(-0.00293391 -0.00363494 -1.09202e-16)
(-0.00327615 -0.00352654 2.02492e-16)
(-0.00340674 -0.00382238 -5.96436e-17)
(-0.00332232 -0.00322774 9.17394e-17)
(-0.003374 -0.00290536 -9.59191e-17)
(-0.00376894 -0.00299535 2.82466e-18)
(-0.00356923 -0.00246274 -6.39566e-17)
(-0.00414365 -0.00200218 2.67114e-17)
(-0.00395396 -0.00158721 -2.03382e-17)
(-0.00231415 -0.000880101 -3.6329e-17)
(0.0028672 0.00136384 4.8959e-17)
(0.0141658 0.00491063 4.36555e-17)
(0.0286735 0.00986024 8.55065e-19)
(0.0439254 0.0159331 -2.55456e-17)
(0.0582325 0.0231882 -2.53644e-17)
(0.0724563 0.0304532 -4.71855e-17)
(0.0858475 0.0364311 -8.12432e-17)
(0.0981616 0.042165 -3.41292e-17)
(0.109649 0.0457956 2.67261e-17)
(0.119768 0.0491915 -2.04806e-17)
(0.129573 0.0509186 -6.60936e-18)
(0.137794 0.0522155 1.3514e-17)
(0.145862 0.0523218 3.11154e-17)
(0.153376 0.0509844 6.01687e-17)
(0.159848 0.05021 2.2146e-17)
(0.166236 0.0481092 -3.85224e-17)
(0.172038 0.0454424 -1.12329e-16)
(0.177504 0.0425662 -1.85363e-16)
(0.18198 0.0403487 -2.133e-16)
(0.18675 0.0366328 -2.18949e-16)
(0.190715 0.0329359 -1.75152e-16)
(0.194488 0.0288798 -1.21984e-16)
(0.197596 0.0249994 -5.10745e-17)
(0.200687 0.0205684 2.37323e-17)
(0.202865 0.0159444 8.70593e-17)
(0.205158 0.0114237 1.40648e-16)
(0.206622 0.00637443 1.69939e-16)
(0.208182 0.00152508 1.7581e-16)
(0.208967 -0.00352557 1.55186e-16)