/*--------------------------------*- C++ -*----------------------------------*\
| =========                 |                                                 |
| \\      /  F ield         | OpenFOAM: The Open Source CFD Toolbox           |
|  \\    /   O peration     | Version:  v2006                                 |
|   \\  /    A nd           | Website:  www.openfoam.com                      |
|    \\/     M anipulation  |                                                 |
\*---------------------------------------------------------------------------*/
FoamFile
{
    version     2.0;
    format      ascii;
    class       volVectorField;
    location    "160";
    object      UMean;
}
// * * * * * * * * * * * * * * * * * * * * * * * * * * * * * * * * * * * * * //

dimensions      [0 1 -1 0 0 0 0];


internalField   nonuniform List<vector> 
65536
(
(-0.00197745 -0.0168778 2.62791e-18)
(-0.00265652 -0.0300311 -1.61171e-17)
(-0.00386105 -0.0414483 7.0723e-18)
(-0.00557039 -0.0514224 -1.72118e-17)
(-0.00761072 -0.0601097 1.15435e-17)
(-0.00988458 -0.0673922 -1.19085e-17)
(-0.0122908 -0.0730404 8.20602e-18)
(-0.0148264 -0.0773626 -1.53763e-17)
(-0.0173856 -0.0807304 4.98717e-19)
(-0.0198485 -0.0828675 -1.60593e-17)
(-0.0221961 -0.0840248 1.28342e-18)
(-0.0242806 -0.0840468 -2.00117e-17)
(-0.026047 -0.082879 -6.37991e-18)
(-0.0273996 -0.0806729 -1.63506e-17)
(-0.028211 -0.0772578 -4.03141e-18)
(-0.0283585 -0.0726443 -2.77482e-17)
(-0.027697 -0.0665196 -7.43095e-18)
(-0.0263886 -0.0595517 -2.811e-17)
(-0.0242607 -0.0517698 -2.21148e-17)
(-0.0216304 -0.0439513 -5.57154e-17)
(-0.0180477 -0.0352978 1.03762e-17)
(-0.013151 -0.0258733 -1.72795e-17)
(-0.00521599 -0.0127819 1.36051e-17)
(0.00379663 0.00219383 1.19699e-17)
(0.00956571 0.012359 5.79725e-17)
(0.0119469 0.0167153 3.5996e-17)
(0.01219 0.0168018 7.32608e-17)
(0.0113997 0.0148292 2.757e-17)
(0.0104486 0.013018 -2.33161e-17)
(0.00892519 0.0109389 3.3096e-17)
(0.00611487 0.0077278 -1.14153e-17)
(0.00227541 0.00362452 -9.08272e-18)
(-0.0022494 -0.000948597 1.30963e-18)
(-0.00641574 -0.00504974 3.37288e-17)
(-0.00893333 -0.00751057 -2.35228e-17)
(-0.0090486 -0.00769845 2.67039e-17)
(-0.0072883 -0.00624361 -2.48064e-17)
(-0.00415414 -0.00378648 -4.65178e-17)
(0.000309493 -0.000635107 -8.2995e-18)
(0.00609212 0.00315806 -4.05819e-17)
(0.0123711 0.00705922 -1.55064e-17)
(0.0181607 0.0104477 -2.55705e-17)
(0.0222512 0.0125388 3.87085e-17)
(0.0258805 0.013925 -4.09643e-17)
(0.0304179 0.015291 -9.58038e-19)
(0.0365371 0.0169999 1.34119e-17)
(0.0448975 0.0193646 4.14111e-18)
(0.0547663 0.0220905 -5.1097e-18)
(0.0652 0.0246302 -1.08578e-17)
(0.0759715 0.0268188 -1.03697e-17)
(0.0864395 0.0283868 -1.18503e-17)
(0.0963885 0.0292995 -6.22617e-18)
(0.10559 0.0295099 -1.05062e-17)
(0.114078 0.0290745 -1.2121e-17)
(0.121764 0.0280251 -1.10681e-17)
(0.128764 0.0264638 -1.5983e-17)
(0.135099 0.0244306 -1.24428e-17)
(0.140831 0.0219989 -1.6737e-17)
(0.146003 0.0192308 -1.08847e-17)
(0.150686 0.0161484 -1.66987e-17)
(0.154853 0.0128211 -1.19405e-17)
(0.158619 0.00927299 -1.62604e-17)
(0.161917 0.0055139 -1.21323e-17)
(0.164829 0.00161861 -1.64682e-17)
(0.167332 -0.00243714 -1.28888e-17)
(0.169472 -0.00658148 -1.66248e-17)
(0.171233 -0.0108449 -1.36503e-17)
(0.172629 -0.0151578 -1.63377e-17)
(0.173692 -0.0195196 -1.42382e-17)
(0.174409 -0.0239326 -1.66804e-17)
(0.174785 -0.0283311 -1.25044e-17)
(0.174862 -0.0327437 -1.75925e-17)
(0.174593 -0.0371306 -1.34122e-17)
(0.174041 -0.0414682 -2.24137e-17)
(0.173183 -0.0457673 -1.2781e-17)
(0.172025 -0.0499772 -2.19308e-17)
(0.170606 -0.0541103 -1.22828e-17)
(0.16891 -0.058146 -2.14794e-17)
(0.166946 -0.0620703 -1.64913e-17)
(0.164736 -0.0658566 -2.00478e-17)
(0.16229 -0.0695272 -1.5382e-17)
(0.159608 -0.073031 -2.0134e-17)
(0.156703 -0.0763917 -1.41643e-17)
(0.153584 -0.0795587 -1.70189e-17)
(0.150286 -0.0825622 -9.35256e-18)
(0.14678 -0.0853762 -1.44833e-17)
(0.143112 -0.0879641 -4.57192e-18)
(0.139297 -0.0903873 -1.04885e-17)
(0.135295 -0.0925612 -3.20272e-18)
(0.131206 -0.0945243 -1.19453e-17)
(0.126953 -0.0962684 -3.33202e-18)
(0.122622 -0.0977704 -1.38249e-17)
(0.118157 -0.0990295 -1.389e-17)
(0.113662 -0.100049 -7.02857e-18)
(0.109046 -0.100843 -1.17757e-17)
(0.104402 -0.101354 -1.73431e-18)
(0.0997157 -0.101633 -1.4664e-18)
(0.0950034 -0.101672 -6.87341e-18)
(0.0902521 -0.101436 -4.8042e-18)
(0.0855372 -0.100958 -5.94034e-19)
(0.0808034 -0.100232 -5.49524e-18)
(0.0761204 -0.0992536 -1.28286e-20)
(0.0714495 -0.0980297 -1.05542e-18)
(0.066855 -0.0965476 -4.92526e-19)
(0.0623135 -0.094844 1.03774e-17)
(0.0578458 -0.092888 3.61059e-18)
(0.0534796 -0.0906966 1.5221e-17)
(0.0492121 -0.0882927 -5.29203e-19)
(0.0450507 -0.0856471 1.89038e-17)
(0.0410321 -0.0827947 -4.6243e-18)
(0.0371372 -0.0797347 1.66982e-17)
(0.0334001 -0.0764597 -4.46594e-18)
(0.0298143 -0.073006 1.28415e-17)
(0.0264027 -0.0693384 -1.90695e-19)
(0.0231679 -0.0655291 7.43386e-18)
(0.0201141 -0.0614956 9.53859e-18)
(0.0172673 -0.0573558 9.5897e-18)
(0.0146098 -0.0529956 5.22763e-18)
(0.0121775 -0.0485756 1.06771e-17)
(0.00994554 -0.0439091 4.86852e-19)
(0.00796069 -0.0392459 2.24774e-17)
(0.00617615 -0.0342813 5.49676e-18)
(0.00467318 -0.029394 3.90318e-17)
(0.00336839 -0.0241723 6.05103e-18)
(0.00236015 -0.0192046 6.3521e-17)
(0.00153483 -0.0137337 2.86224e-17)
(0.00106709 -0.0089132 6.70203e-17)
(0.000813941 -0.00320957 6.32263e-17)
(0.000811745 0.00229765 7.71035e-17)
(0.00103778 0.00816988 5.3369e-17)
(0.00147846 0.0129566 1.18011e-16)
(0.00228311 0.01834 4.62569e-17)
(0.00328286 0.0233872 1.12396e-16)
(0.00456462 0.0286037 5.0994e-17)
(0.00606097 0.0335154 9.30613e-17)
(0.00782458 0.0384836 4.23473e-17)
(0.00979112 0.0431616 7.51217e-17)
(0.012005 0.0478339 4.91864e-17)
(0.0144154 0.0522616 5.62096e-17)
(0.0170532 0.0566279 3.73166e-17)
(0.0198813 0.0607689 4.08986e-17)
(0.0229208 0.0648108 2.83036e-17)
(0.0261333 0.0686216 4.17739e-17)
(0.0295325 0.072303 1.25208e-17)
(0.0330986 0.075758 3.26349e-17)
(0.0368232 0.07905 6.06581e-18)
(0.0406984 0.0821103 2.50268e-17)
(0.044705 0.0849805 -3.43555e-18)
(0.0488446 0.0876269 1.39206e-17)
(0.0531016 0.0900486 -6.22502e-18)
(0.0574446 0.0922418 4.6185e-18)
(0.0619027 0.0942157 -7.9538e-18)
(0.0664209 0.0959196 3.88629e-18)
(0.0710062 0.0974196 -1.32519e-18)
(0.0756535 0.0986438 -4.44689e-19)
(0.0803265 0.0996379 -8.46735e-19)
(0.0850365 0.100366 -2.93347e-18)
(0.0897412 0.100861 -5.64507e-18)
(0.0944677 0.1011 2.13373e-18)
(0.0991703 0.101077 -6.17571e-18)
(0.103831 0.100801 -4.74477e-18)
(0.108465 0.100309 1.84736e-18)
(0.113055 0.0995176 -1.27705e-18)
(0.11754 0.0985163 2.90806e-18)
(0.121979 0.0972612 3.29757e-18)
(0.126302 0.0957771 -8.88605e-18)
(0.130525 0.094039 1.76367e-19)
(0.134607 0.0920952 -9.87484e-18)
(0.138579 0.0899272 -2.09675e-18)
(0.142384 0.0875234 -9.05547e-18)
(0.146021 0.0849423 5.54917e-19)
(0.14952 0.0821472 -3.58789e-18)
(0.152782 0.0791502 2.41686e-18)
(0.155894 0.076004 1.50404e-18)
(0.15876 0.0726499 4.80229e-18)
(0.161434 0.069168 3.34462e-18)
(0.163838 0.0655048 6.46872e-18)
(0.166039 0.0617405 2.23704e-18)
(0.167957 0.0578251 8.11765e-18)
(0.169643 0.0538118 -1.70388e-18)
(0.171008 0.0496897 8.74543e-18)
(0.172156 0.0455037 -7.75631e-19)
(0.172953 0.0412167 9.3141e-18)
(0.173494 0.0369043 4.19479e-19)
(0.173694 0.032532 6.96735e-18)
(0.173604 0.0281474 -8.10568e-19)
(0.17315 0.0237668 4.95013e-18)
(0.172417 0.0193839 1.20762e-18)
(0.171263 0.0150457 4.97617e-18)
(0.169849 0.0107659 8.99446e-19)
(0.167982 0.0065322 5.51829e-18)
(0.165817 0.00242506 3.4004e-19)
(0.163191 -0.00159238 5.73138e-18)
(0.160243 -0.00544431 -1.96099e-19)
(0.156799 -0.00915233 5.96782e-18)
(0.152982 -0.0126484 -2.15412e-19)
(0.148638 -0.0159065 6.99046e-18)
(0.14388 -0.0189244 -1.11386e-18)
(0.138492 -0.0215985 7.8561e-18)
(0.132651 -0.0239457 -8.60703e-19)
(0.126056 -0.0258584 8.93471e-18)
(0.118921 -0.0273118 9.17503e-19)
(0.11096 -0.028216 5.64834e-18)
(0.102382 -0.028544 -2.59572e-19)
(0.0930113 -0.0282033 6.00117e-19)
(0.0831789 -0.0272487 9.02466e-19)
(0.0727934 -0.025644 8.12841e-18)
(0.0625599 -0.0236059 -6.61836e-18)
(0.0525547 -0.0212109 7.64881e-19)
(0.0432052 -0.0186382 -2.03564e-17)
(0.0347005 -0.0159913 -2.09098e-17)
(0.0274366 -0.0134032 -4.1519e-18)
(0.0202254 -0.010391 4.3511e-17)
(0.0144264 -0.00778279 -2.78826e-17)
(0.00981566 -0.00543593 4.58944e-17)
(0.0054419 -0.00292936 1.61635e-17)
(0.00142815 -0.000512317 7.47093e-17)
(-0.00156612 0.00137221 2.55552e-17)
(-0.00292409 0.00222285 8.15965e-17)
(-0.00282885 0.00206856 5.17701e-17)
(-0.00185761 0.00119548 -3.05057e-17)
(-0.000296107 -0.000260128 4.36402e-17)
(0.00192825 -0.00236409 -2.53461e-18)
(0.00384882 -0.00423743 5.19992e-18)
(0.00504336 -0.00548625 4.46069e-18)
(0.00530957 -0.00581205 5.72609e-17)
(0.00432688 -0.00486193 -2.94157e-17)
(0.00321766 -0.0038875 4.76478e-17)
(0.00240215 -0.00336836 -2.96682e-17)
(0.00285743 -0.00437367 -5.79755e-17)
(0.00281776 -0.0042635 -3.24752e-17)
(0.00165354 -0.00150246 -4.59562e-17)
(-0.00277341 0.00731768 -4.39211e-18)
(-0.0105544 0.0209107 -9.10092e-18)
(-0.0171832 0.032518 5.47558e-18)
(-0.0218031 0.0420206 -1.29895e-17)
(-0.0249414 0.0500962 2.56231e-17)
(-0.0269086 0.0568939 1.65601e-18)
(-0.0280824 0.0629508 1.24837e-17)
(-0.0286295 0.0683264 -1.24184e-18)
(-0.0285681 0.0727338 1.70545e-18)
(-0.0278183 0.0758397 -6.91317e-19)
(-0.0266243 0.0780642 -7.29407e-18)
(-0.0249825 0.0791146 -2.14607e-18)
(-0.0228356 0.0785728 7.16152e-18)
(-0.0205714 0.0772613 -1.26515e-17)
(-0.0180303 0.0742929 3.50631e-18)
(-0.0154165 0.0701724 -2.57438e-17)
(-0.012729 0.0647385 -5.1241e-18)
(-0.010245 0.0587559 -3.37945e-17)
(-0.0079147 0.0515112 -1.04036e-17)
(-0.00589575 0.0435883 -3.37356e-17)
(-0.00417326 0.034089 -1.21963e-17)
(-0.00285019 0.0234192 -3.34161e-17)
(-0.00202905 0.0112333 -9.74797e-18)
(-0.00174491 -0.00231621 -3.00536e-17)
(-0.00519214 -0.0170495 -2.64703e-17)
(-0.00555103 -0.0300885 -2.97229e-18)
(-0.00651352 -0.0420276 -1.70678e-17)
(-0.0079795 -0.0523939 -8.07827e-18)
(-0.00986385 -0.0615667 -1.949e-17)
(-0.0119909 -0.0694718 -9.49501e-18)
(-0.0143047 -0.0761324 -2.22003e-17)
(-0.016807 -0.0813764 -1.79399e-17)
(-0.0193455 -0.0852978 -3.20387e-17)
(-0.0218356 -0.0882053 -1.3327e-17)
(-0.0242243 -0.0899583 -2.26245e-17)
(-0.0263411 -0.0905706 -2.08017e-17)
(-0.0281305 -0.0900038 -2.20503e-17)
(-0.029536 -0.0882899 -1.24776e-17)
(-0.0303866 -0.0854033 -2.66197e-17)
(-0.0305176 -0.0812561 -3.96017e-18)
(-0.0297551 -0.0754148 -2.5436e-17)
(-0.028205 -0.0683124 -9.45734e-19)
(-0.0261258 -0.0603798 -2.78454e-17)
(-0.0235345 -0.0523216 -5.17089e-18)
(-0.0197246 -0.0433615 -2.78026e-17)
(-0.0143792 -0.0338812 -4.45162e-18)
(-0.00699072 -0.0222468 -1.60981e-17)
(0.00061392 -0.00842895 1.36175e-17)
(0.00671938 0.00423266 -4.12076e-17)
(0.0107246 0.0125222 1.35085e-17)
(0.0121554 0.0159348 2.73765e-17)
(0.0111906 0.0149748 -5.54155e-17)
(0.0100724 0.0130989 -2.75008e-18)
(0.00842794 0.0112047 -4.82782e-17)
(0.00571302 0.00854756 2.44698e-17)
(0.00211792 0.00508643 -1.72066e-17)
(-0.00174288 0.00123571 -2.17672e-18)
(-0.00500309 -0.00244235 -3.73309e-17)
(-0.00661407 -0.00502178 2.41372e-17)
(-0.00614537 -0.00574657 5.6673e-19)
(-0.00394326 -0.00469858 1.77468e-17)
(-0.000419466 -0.00258195 -1.20527e-17)
(0.00437133 0.000301965 -6.72619e-18)
(0.0101506 0.00376437 2.91603e-17)
(0.0163848 0.00755747 -3.27686e-19)
(0.0223097 0.011262 -1.07579e-17)
(0.0273533 0.014003 -1.62122e-17)
(0.032541 0.0158833 5.31104e-18)
(0.0387975 0.0176449 -3.22384e-18)
(0.0467621 0.0196581 3.09525e-18)
(0.056435 0.0220483 -1.1747e-17)
(0.0672006 0.0247083 -7.58673e-18)
(0.0784451 0.0271916 -1.26283e-17)
(0.0898162 0.0293168 -5.40114e-18)
(0.100757 0.03085 -9.19917e-18)
(0.111105 0.0317005 -1.03052e-17)
(0.120629 0.0318262 -7.74017e-18)
(0.129382 0.0312864 -1.29333e-17)
(0.137293 0.0300905 -1.24257e-17)
(0.144488 0.0283555 -1.43729e-17)
(0.150976 0.0261181 -1.01334e-17)
(0.156849 0.02346 -1.38123e-17)
(0.162129 0.0204456 -1.16569e-17)
(0.166896 0.0170952 -1.56211e-17)
(0.171137 0.0134853 -1.12713e-17)
(0.174936 0.0096379 -1.4965e-17)
(0.178261 0.00556886 -1.18211e-17)
(0.181173 0.00135477 -1.53678e-17)
(0.183653 -0.00302665 -1.26235e-17)
(0.185756 -0.00750299 -1.57334e-17)
(0.187447 -0.0120978 -1.29229e-17)
(0.188768 -0.0167462 -1.64566e-17)
(0.189726 -0.0214373 -1.43917e-17)
(0.19032 -0.0261778 -1.57427e-17)
(0.190564 -0.030903 -1.60811e-17)
(0.190475 -0.035633 -1.68891e-17)
(0.190039 -0.0403342 -1.65331e-17)
(0.189294 -0.0449778 -1.80189e-17)
(0.188227 -0.0495758 -1.6845e-17)
(0.186855 -0.0540799 -1.66889e-17)
(0.185196 -0.0584932 -1.62151e-17)
(0.183252 -0.0628031 -1.75411e-17)
(0.181026 -0.0669882 -1.33946e-17)
(0.178543 -0.0710267 -1.66414e-17)
(0.175806 -0.0749338 -1.75077e-17)
(0.172829 -0.0786641 -1.71567e-17)
(0.169618 -0.0822337 -1.94125e-17)
(0.166189 -0.0855998 -1.84885e-17)
(0.162565 -0.0887805 -2.46246e-17)
(0.158733 -0.091767 -1.66484e-17)
(0.154732 -0.0945077 -2.51021e-17)
(0.150571 -0.0970641 -2.03883e-17)
(0.146229 -0.0993647 -2.57864e-17)
(0.141787 -0.101434 -1.36442e-17)
(0.13718 -0.103265 -2.45628e-17)
(0.132491 -0.104845 -2.17715e-17)
(0.127669 -0.106165 -1.95897e-17)
(0.122813 -0.107227 -2.21796e-17)
(0.11783 -0.10804 -9.64267e-18)
(0.112831 -0.10857 -2.57841e-17)
(0.107778 -0.108831 -1.13588e-17)
(0.102701 -0.108847 -2.46597e-17)
(0.0975921 -0.108562 -6.32151e-18)
(0.0925175 -0.108026 -3.50021e-17)
(0.0874299 -0.107205 -1.02027e-17)
(0.0823942 -0.106131 -2.70002e-17)
(0.0773798 -0.104777 1.61438e-18)
(0.0724449 -0.10316 -2.28758e-17)
(0.0675766 -0.101281 -1.30589e-17)
(0.0627807 -0.0991494 -2.14265e-17)
(0.0581072 -0.0967495 -1.39315e-17)
(0.0535233 -0.0941227 -2.16287e-17)
(0.0490734 -0.0912319 -1.36889e-17)
(0.0447569 -0.0881154 -1.97882e-17)
(0.0405871 -0.0847696 -1.89325e-17)
(0.0365708 -0.0811909 -1.29184e-17)
(0.0327376 -0.0774138 -1.81313e-17)
(0.0290732 -0.073405 -4.37064e-18)
(0.0256262 -0.0692429 -1.61294e-17)
(0.0223488 -0.0648474 -6.2909e-18)
(0.0193212 -0.0603454 -1.48092e-17)
(0.0164823 -0.055612 -1.42294e-18)
(0.0139079 -0.0508301 -2.10495e-17)
(0.0115374 -0.0458012 9.20732e-19)
(0.0094547 -0.0407864 -1.28618e-17)
(0.0075793 -0.0355025 9.8817e-18)
(0.00599121 -0.0302838 -1.46034e-17)
(0.00461137 -0.0248393 2.65307e-17)
(0.00356101 -0.0195404 -1.60103e-17)
(0.0027022 -0.0140409 4.40945e-17)
(0.00215766 -0.00877397 5.56249e-18)
(0.00200261 -0.00332581 7.38693e-17)
(0.00202332 0.00241649 5.06174e-17)
(0.00216275 0.00798192 1.02736e-16)
(0.00263201 0.0132512 6.60805e-17)
(0.00348738 0.0186849 8.95355e-17)
(0.00453516 0.0240095 3.1847e-17)
(0.00588182 0.029442 3.30968e-17)
(0.00744308 0.034669 2.25309e-18)
(0.00929597 0.0399493 1.61435e-17)
(0.0113608 0.0449694 -7.76135e-18)
(0.0137093 0.0500047 1.0593e-17)
(0.0162669 0.0547881 -1.29668e-17)
(0.0190863 0.059528 1.36425e-18)
(0.022092 0.0640287 -1.23131e-17)
(0.0253483 0.0684367 1.17921e-18)
(0.0287769 0.0725979 -1.78985e-17)
(0.0324227 0.0766228 3.44554e-19)
(0.0362346 0.080402 -6.29019e-18)
(0.0402355 0.0839994 -2.61566e-18)
(0.0443822 0.0873468 -1.06685e-18)
(0.0486855 0.0904838 -1.00162e-17)
(0.0531133 0.093375 -1.36234e-18)
(0.0576843 0.0960232 -1.17499e-17)
(0.0623362 0.0984231 -1.41114e-18)
(0.0671193 0.100576 -1.1959e-17)
(0.0719637 0.102455 -1.57832e-18)
(0.0768874 0.104094 -2.6673e-17)
(0.0818755 0.105449 3.0522e-18)
(0.0869006 0.106543 -1.53608e-17)
(0.0919618 0.107365 1.15441e-17)
(0.0970264 0.107922 -1.89139e-17)
(0.102109 0.108209 1.48409e-18)
(0.107176 0.108214 -1.31029e-17)
(0.112201 0.107955 3.62305e-18)
(0.117192 0.107445 -1.40305e-17)
(0.122145 0.106636 1.00451e-18)
(0.126993 0.105595 -3.27726e-18)
(0.131786 0.104279 1.7274e-18)
(0.136465 0.102722 2.19958e-18)
(0.141043 0.100894 -5.92385e-18)
(0.145478 0.0988474 5.0251e-18)
(0.149787 0.0965523 1.80075e-18)
(0.153942 0.0940189 4.63241e-18)
(0.157908 0.0912836 -4.0338e-19)
(0.161731 0.0883218 5.35039e-18)
(0.165318 0.0851471 2.2236e-18)
(0.168739 0.0818053 4.98989e-19)
(0.171909 0.0782434 2.11637e-18)
(0.174878 0.0745374 -7.73351e-19)
(0.177569 0.0706395 2.64064e-18)
(0.180045 0.0666267 -2.06425e-18)
(0.182219 0.0624517 3.87822e-18)
(0.184155 0.0581691 1.06911e-18)
(0.185756 0.0537669 4.01547e-18)
(0.187118 0.0492913 1.8845e-18)
(0.188121 0.0447077 6.23068e-18)
(0.188856 0.0400944 1.62065e-18)
(0.189218 0.0354113 3.94786e-18)
(0.189295 0.030713 2.0781e-18)
(0.188969 0.0260104 4.63463e-18)
(0.188359 0.0213044 1.8969e-18)
(0.187308 0.0166405 5.61464e-18)
(0.185966 0.01203 5.78274e-19)
(0.184168 0.00747023 5.21135e-18)
(0.182038 0.00303611 5.38627e-19)
(0.179434 -0.00130065 5.23346e-18)
(0.176485 -0.00546647 3.03297e-22)
(0.173013 -0.00947893 5.2609e-18)
(0.169159 -0.0132685 -3.06148e-19)
(0.164742 -0.0168064 6.34785e-18)
(0.159895 -0.0200839 7.6239e-19)
(0.154399 -0.0230038 4.7668e-18)
(0.148408 -0.0255695 1.2826e-18)
(0.141661 -0.0276806 4.69852e-18)
(0.134316 -0.0293069 2.40001e-18)
(0.126124 -0.0303577 4.02926e-18)
(0.117258 -0.0308038 -7.63917e-19)
(0.107551 -0.0305749 5.02516e-18)
(0.0973001 -0.0297193 1.84334e-18)
(0.0864413 -0.0282175 -3.97559e-19)
(0.0754972 -0.026247 8.03424e-18)
(0.0646519 -0.0238106 2.79164e-18)
(0.0543772 -0.0211349 1.43535e-18)
(0.0446713 -0.0182969 -9.92942e-18)
(0.0361946 -0.0153845 1.09349e-18)
(0.0281458 -0.0123177 -3.45901e-18)
(0.0208523 -0.0095421 2.65631e-17)
(0.0146994 -0.00675429 2.64382e-17)
(0.00966013 -0.00407488 -4.93594e-18)
(0.00533121 -0.00170123 -2.19586e-17)
(0.00168691 7.97517e-05 1.7809e-17)
(-0.000518972 0.000831683 2.48377e-17)
(-0.00106044 0.000581864 -3.31691e-17)
(-0.000506965 -0.000302465 -3.20434e-18)
(0.000575313 -0.00167852 -4.01944e-17)
(0.00226194 -0.0034404 3.14956e-17)
(0.00391131 -0.0048392 5.11462e-18)
(0.0049691 -0.00552558 6.41738e-18)
(0.00514314 -0.00510526 -2.64482e-17)
(0.00427157 -0.00382666 4.61643e-17)
(0.00290474 -0.00248991 7.73993e-18)
(0.00198379 -0.00217558 4.32816e-17)
(0.00192244 -0.00229945 -3.16885e-17)
(0.0010749 0.000134442 -1.58177e-17)
(-0.00188148 0.00730959 3.01211e-17)
(-0.00703375 0.0191213 -1.23753e-17)
(-0.0135005 0.0315963 7.32774e-18)
(-0.0194804 0.0419337 -5.72474e-18)
(-0.0239965 0.0508255 8.67685e-18)
(-0.0272903 0.058779 -9.17064e-18)
(-0.0293249 0.0654738 7.53346e-18)
(-0.0304872 0.0714174 -5.02332e-18)
(-0.0310173 0.0764911 8.24773e-18)
(-0.0308823 0.0803222 -4.28923e-18)
(-0.0299938 0.0827067 9.66466e-18)
(-0.0286876 0.0843602 -2.65765e-19)
(-0.0271025 0.0848023 -1.54847e-18)
(-0.0249289 0.0835427 -1.26105e-17)
(-0.0225901 0.0814092 -2.66363e-17)
(-0.0200599 0.0776731 -1.11329e-17)
(-0.0174378 0.0728223 -2.47515e-17)
(-0.0147549 0.0668186 -7.57912e-18)
(-0.0123153 0.0604298 -1.88319e-17)
(-0.0101182 0.0531344 -1.43681e-17)
(-0.00821891 0.0447198 -1.61966e-17)
(-0.00671587 0.0347318 -2.07442e-17)
(-0.00561908 0.0234383 -2.29607e-17)
(-0.00506208 0.0109935 -2.98849e-17)
(-0.00503952 -0.00271468 -1.58555e-17)
(-0.00860586 -0.0168731 -1.81044e-17)
(-0.00870553 -0.0298211 -1.61619e-17)
(-0.00929203 -0.0414704 -1.26546e-17)
(-0.0103808 -0.051671 -2.98226e-17)
(-0.0118922 -0.0605934 -1.05774e-17)
(-0.0136519 -0.068214 -2.5412e-17)
(-0.015613 -0.0747215 4.29891e-19)
(-0.0177496 -0.0800201 -2.70217e-17)
(-0.019952 -0.0839039 -8.56654e-18)
(-0.0221871 -0.0868441 -2.26214e-17)
(-0.0242705 -0.0886756 3.72522e-18)
(-0.0260949 -0.0893482 -1.47288e-17)
(-0.0277432 -0.0892169 -8.34402e-18)
(-0.0290317 -0.0881116 -2.22739e-17)
(-0.0298965 -0.0861317 -1.01848e-17)
(-0.0300459 -0.083057 -3.28967e-17)
(-0.0294456 -0.0784611 -6.49124e-18)
(-0.0280282 -0.0719447 -2.3999e-17)
(-0.0261231 -0.0646323 -3.00919e-17)
(-0.0234244 -0.0568753 -2.18176e-17)
(-0.0196024 -0.0484251 -1.53184e-17)
(-0.0142163 -0.0395341 -4.24384e-18)
(-0.0070828 -0.0294268 1.16639e-17)
(0.000428159 -0.016154 -9.13352e-18)
(0.00668507 -0.00168703 3.1975e-17)
(0.0103653 0.00928288 -4.90384e-17)
(0.0109692 0.0142962 -1.29157e-17)
(0.0103017 0.0148157 -1.28058e-17)
(0.00948562 0.0136273 2.15979e-18)
(0.00783245 0.0120062 2.35444e-17)
(0.00510467 0.00976532 -9.98744e-19)
(0.00176536 0.00672411 1.49302e-17)
(-0.00157979 0.00320954 -2.38478e-17)
(-0.00391713 -0.000140084 -1.62625e-17)
(-0.00452239 -0.00262468 -1.54385e-17)
(-0.00334435 -0.00361033 -1.81002e-18)
(-0.00062216 -0.00290786 -3.07641e-20)
(0.00327874 -0.00106611 2.97201e-17)
(0.00836496 0.00151719 3.11119e-17)
(0.0143375 0.0047017 8.09431e-18)
(0.0205535 0.00825911 1.18865e-17)
(0.0266288 0.0120512 -2.0015e-17)
(0.0324265 0.0153424 -4.34127e-18)
(0.0387962 0.0177809 -1.02451e-18)
(0.0465196 0.0197331 5.89501e-18)
(0.0561185 0.0217727 1.02511e-17)
(0.0670707 0.024021 -4.62419e-18)
(0.078784 0.0265338 -2.85799e-18)
(0.0907935 0.0289573 -8.28188e-19)
(0.102673 0.0310306 -9.64482e-18)
(0.113936 0.0325145 -4.62045e-18)
(0.124493 0.0333396 -1.39157e-17)
(0.134155 0.0334236 -1.09859e-17)
(0.142985 0.0327978 -1.32588e-17)
(0.150923 0.0314894 -5.87715e-18)
(0.158124 0.0295979 -9.26826e-18)
(0.164583 0.0271755 -1.12392e-17)
(0.170412 0.0243054 -1.0542e-17)
(0.17562 0.0210534 -9.9628e-18)
(0.180298 0.0174616 -9.62883e-18)
(0.184424 0.0135967 -9.3863e-18)
(0.188097 0.00949593 -9.81258e-18)
(0.191273 0.00517605 -1.02844e-17)
(0.194019 0.000710044 -1.0118e-17)
(0.196322 -0.00391602 -1.01394e-17)
(0.198223 -0.00863167 -1.0414e-17)
(0.199712 -0.0134555 -1.04861e-17)
(0.200804 -0.0183263 -1.03142e-17)
(0.201527 -0.0232349 -1.11465e-17)
(0.201869 -0.0281773 -1.19946e-17)
(0.201848 -0.033096 -1.29841e-17)
(0.201484 -0.0380058 -1.39213e-17)
(0.200764 -0.0428738 -1.41909e-17)
(0.199719 -0.0476714 -1.05295e-17)
(0.198345 -0.0524044 -1.668e-17)
(0.196657 -0.0570299 -1.65747e-17)
(0.19467 -0.0615494 -1.81919e-17)
(0.192394 -0.0659445 -1.8574e-17)
(0.189824 -0.0701999 -1.75624e-17)
(0.187001 -0.0742927 -2.0658e-17)
(0.183908 -0.0782316 -1.50282e-17)
(0.180579 -0.0819794 -2.2085e-17)
(0.17701 -0.085548 -1.48668e-17)
(0.17322 -0.0888966 -1.85824e-17)
(0.169237 -0.0920443 -1.64582e-17)
(0.165043 -0.0949704 -1.95746e-17)
(0.160685 -0.0976461 -2.26095e-17)
(0.156168 -0.100109 -2.63093e-17)
(0.151479 -0.102305 -2.42886e-17)
(0.146688 -0.104249 -3.38431e-17)
(0.14175 -0.105948 -2.2208e-17)
(0.136728 -0.107365 -3.03228e-17)
(0.1316 -0.108527 -2.42947e-17)
(0.126425 -0.1094 -3.16588e-17)
(0.121169 -0.110035 -3.167e-17)
(0.115876 -0.110348 -3.9207e-17)
(0.110574 -0.110424 -3.98925e-17)
(0.105245 -0.110208 -3.5426e-17)
(0.0999231 -0.109728 -3.60029e-17)
(0.0946277 -0.108957 -2.99644e-17)
(0.089364 -0.107949 -3.71436e-17)
(0.0841463 -0.10664 -3.01941e-17)
(0.0789955 -0.105109 -5.19659e-17)
(0.073912 -0.10327 -3.76903e-17)
(0.0689396 -0.101238 -4.81797e-17)
(0.0640373 -0.0989027 -3.65179e-17)
(0.0592908 -0.0963764 -4.21221e-17)
(0.0546398 -0.093578 -3.30422e-17)
(0.0501556 -0.0905957 -5.04722e-17)
(0.0458038 -0.0873454 -1.95923e-17)
(0.0416363 -0.0839466 -5.3414e-17)
(0.037618 -0.0802743 -1.9416e-17)
(0.0338077 -0.0764896 -5.03042e-17)
(0.0301642 -0.0724362 -2.48085e-17)
(0.0267477 -0.0683062 -4.52365e-17)
(0.023512 -0.0639131 -2.57053e-17)
(0.0205237 -0.059469 -4.11385e-17)
(0.0177274 -0.0547851 -2.19731e-17)
(0.0151909 -0.0500749 -1.77495e-17)
(0.0128659 -0.0451415 -8.63322e-18)
(0.0108113 -0.0402054 -2.74307e-17)
(0.00897827 -0.0350491 -1.34741e-17)
(0.00742334 -0.0299043 -1.59938e-17)
(0.00608177 -0.0245762 4.63531e-18)
(0.00502617 -0.019316 1.91864e-17)
(0.00417577 -0.0139059 4.05341e-18)
(0.00366237 -0.00869037 4.21618e-17)
(0.00352655 -0.00323639 4.35588e-17)
(0.00355313 0.00235608 1.0788e-16)
(0.00366 0.00791328 4.67608e-17)
(0.00410307 0.0131283 6.24876e-17)
(0.00494094 0.0184695 1.36547e-17)
(0.00599263 0.0237368 -1.15126e-17)
(0.00730126 0.0290348 -1.29612e-17)
(0.00884916 0.0342012 -7.05681e-18)
(0.0106554 0.0393446 -6.9875e-18)
(0.0126947 0.0443111 -1.25951e-17)
(0.014997 0.0492441 -2.32366e-17)
(0.0175132 0.0539772 -9.12507e-18)
(0.0202856 0.0586636 -5.23431e-18)
(0.0232588 0.0631233 -1.39596e-17)
(0.0264763 0.0675179 -6.73744e-18)
(0.0298729 0.0716591 -2.35745e-17)
(0.0334998 0.0757195 -5.574e-18)
(0.0372906 0.0795091 -3.56993e-17)
(0.0412909 0.0831915 -4.98853e-18)
(0.0454374 0.0865913 -3.98886e-17)
(0.0497728 0.089856 -9.03214e-18)
(0.0542321 0.0928377 -2.7565e-17)
(0.0588687 0.095652 -1.60612e-17)
(0.0635872 0.0981767 -1.51858e-17)
(0.0684757 0.100529 -7.90264e-18)
(0.07342 0.102558 -1.28884e-17)
(0.0784903 0.104414 -7.46141e-19)
(0.0836125 0.105944 -1.75778e-17)
(0.0888181 0.107272 -6.36112e-18)
(0.0940519 0.108278 -1.53392e-17)
(0.0993356 0.109069 -5.61003e-18)
(0.104627 0.109549 -6.33725e-18)
(0.109946 0.109786 1.14499e-18)
(0.115215 0.109711 4.03582e-19)
(0.120498 0.109421 -4.06569e-18)
(0.125722 0.108786 -4.04882e-18)
(0.130887 0.107937 -7.69588e-18)
(0.135982 0.106777 -2.89229e-18)
(0.140996 0.105383 -6.6274e-18)
(0.145897 0.103688 8.84227e-18)
(0.150681 0.101769 -2.0812e-18)
(0.155332 0.0995773 4.84867e-18)
(0.159844 0.0971402 -2.18027e-18)
(0.16416 0.0944698 7.55781e-19)
(0.168349 0.091569 -1.61811e-18)
(0.172288 0.0884272 1.37968e-18)
(0.176073 0.0851054 -1.12879e-18)
(0.179594 0.0815434 6.28581e-18)
(0.182918 0.0778241 7.01841e-19)
(0.185959 0.0738927 6.55096e-18)
(0.188778 0.069829 4.55263e-18)
(0.19129 0.065583 6.12213e-18)
(0.193559 0.0612173 6.25476e-18)
(0.195484 0.0567106 5.6133e-18)
(0.197165 0.0521156 5.93194e-18)
(0.198472 0.0473975 8.11105e-19)
(0.199507 0.0426317 4.27608e-18)
(0.200152 0.0377818 4.89624e-18)
(0.200504 0.0329067 3.99975e-18)
(0.200442 0.0280102 3.58773e-18)
(0.200083 0.0231051 1.79091e-18)
(0.199265 0.0182253 2.67515e-18)
(0.198153 0.0133956 1.46294e-18)
(0.196556 0.00860765 3.36436e-18)
(0.194626 0.00393807 1.30753e-18)
(0.192199 -0.000642068 3.38913e-18)
(0.189412 -0.00505397 1.53701e-18)
(0.18609 -0.00931344 3.33916e-18)
(0.182358 -0.0133486 6.67595e-19)
(0.178058 -0.0171323 3.45673e-18)
(0.173293 -0.0206422 1.37867e-18)
(0.167872 -0.0237842 4.93055e-18)
(0.161917 -0.0265484 3.05852e-18)
(0.155197 -0.0288348 4.43061e-18)
(0.147835 -0.0305985 -2.46131e-18)
(0.139608 -0.0317602 9.30457e-18)
(0.13064 -0.0322831 2.34214e-18)
(0.120771 -0.0321053 6.97945e-18)
(0.11026 -0.0312793 -2.1296e-18)
(0.0990506 -0.0298321 2.97319e-18)
(0.0875639 -0.0279187 -3.64044e-18)
(0.0759613 -0.0256125 -1.83507e-18)
(0.0648044 -0.0230914 -2.53744e-18)
(0.0540403 -0.0203536 -1.81962e-17)
(0.0443304 -0.0174196 -2.61001e-18)
(0.035449 -0.014278 6.02292e-20)
(0.0271417 -0.0111529 3.01076e-17)
(0.0197224 -0.00801494 3.61565e-17)
(0.0136263 -0.00518892 -4.38234e-18)
(0.00872224 -0.00289516 1.70053e-17)
(0.00460809 -0.00123027 -1.03736e-17)
(0.00164721 -0.000497428 -1.39887e-17)
(0.000383801 -0.000726133 -1.10132e-18)
(0.000476459 -0.00162677 -3.29403e-18)
(0.00110114 -0.00283984 2.33514e-17)
(0.00233989 -0.00426696 1.4607e-17)
(0.00382971 -0.00536868 2.58047e-17)
(0.00502469 -0.00583204 -2.83009e-17)
(0.00514058 -0.00501867 -1.54787e-17)
(0.00406239 -0.00330419 -1.99272e-17)
(0.00247446 -0.00197315 1.72997e-17)
(0.0012858 -0.00167281 2.46624e-17)
(0.000890427 -0.000824925 3.99139e-17)
(0.000155879 0.0035684 3.05004e-17)
(-0.00258692 0.0133505 -2.52933e-17)
(-0.00789625 0.0270403 8.25963e-19)
(-0.0142044 0.0387967 -6.51434e-18)
(-0.0197741 0.047471 9.09134e-18)
(-0.0241037 0.0554748 8.67934e-18)
(-0.0271688 0.0624907 1.226e-17)
(-0.0291054 0.0684221 1.26329e-17)
(-0.0301397 0.0736639 9.00142e-18)
(-0.0305273 0.0778709 5.16545e-18)
(-0.0303065 0.080591 2.26262e-17)
(-0.0294201 0.0822455 7.54031e-18)
(-0.0281023 0.0831401 2.26892e-17)
(-0.0267365 0.0831331 7.2355e-18)
(-0.0248783 0.0817191 -1.1308e-17)
(-0.0228867 0.0795167 -2.24722e-17)
(-0.0207552 0.0758261 6.86262e-18)
(-0.0184766 0.0710083 -7.0924e-19)
(-0.0160349 0.0652353 4.87987e-18)
(-0.0138058 0.0592849 -5.39773e-19)
(-0.0119458 0.0523176 -2.85051e-18)
(-0.0104678 0.0439435 -1.53434e-17)
(-0.00936528 0.0340456 -6.21342e-18)
(-0.00857913 0.0228209 -1.76311e-17)
(-0.00833705 0.0104993 -2.13434e-17)
(-0.00852637 -0.00291116 -5.20295e-17)
(-0.0116761 -0.0168314 3.72612e-18)
(-0.0114601 -0.0294526 7.46076e-18)
(-0.0117274 -0.040877 -6.73413e-18)
(-0.0125001 -0.0508686 7.30876e-18)
(-0.0137007 -0.0595614 -5.24451e-18)
(-0.0151736 -0.0670659 4.74542e-18)
(-0.0168402 -0.0733343 -6.4577e-18)
(-0.0186868 -0.0786414 -2.25307e-18)
(-0.0206042 -0.082487 -2.05953e-17)
(-0.0225684 -0.0854691 4.15561e-21)
(-0.0243525 -0.0872554 -7.57738e-18)
(-0.0259315 -0.0878953 -1.15478e-17)
(-0.0273352 -0.0877346 -1.30507e-17)
(-0.0284532 -0.0867826 -1.00866e-18)
(-0.0291931 -0.0852156 -1.82603e-17)
(-0.0292258 -0.0827429 -1.02708e-17)
(-0.0285888 -0.0794106 -3.29675e-17)
(-0.0269951 -0.0737265 3.23826e-18)
(-0.0247787 -0.0661453 -3.54618e-17)
(-0.0219917 -0.0584206 -1.1276e-17)
(-0.0182895 -0.0505408 -1.66141e-17)
(-0.0130688 -0.0424842 -1.28922e-19)
(-0.00666899 -0.0343761 -1.98794e-17)
(-0.000137942 -0.0231721 4.58893e-18)
(0.00508778 -0.0094801 -2.8528e-17)
(0.00853984 0.00313197 6.92496e-17)
(0.00979226 0.011086 -8.08708e-18)
(0.00954196 0.0134724 8.45765e-18)
(0.0090024 0.0132321 1.75872e-17)
(0.00771976 0.0125175 -3.50486e-17)
(0.00532072 0.0109623 -3.46182e-17)
(0.0023608 0.00856871 -7.66979e-18)
(-0.000211471 0.00571543 -1.03447e-17)
(-0.00147457 0.00285171 1.82595e-17)
(-0.0011457 0.000418182 -8.1758e-19)
(0.000789031 -0.000790673 -7.94018e-18)
(0.003989 -0.000434058 -3.06752e-18)
(0.00819301 0.000996728 5.87659e-18)
(0.0135141 0.00324474 -3.78483e-17)
(0.019645 0.00623124 2.57601e-17)
(0.0259253 0.00965527 4.66495e-18)
(0.0320476 0.0133545 1.03472e-17)
(0.0382859 0.0166418 -1.25487e-17)
(0.0458495 0.0192358 -1.07857e-17)
(0.055273 0.0215281 3.10196e-19)
(0.0664867 0.023839 -2.28664e-18)
(0.0786042 0.0262255 -7.96918e-18)
(0.0910672 0.0287249 2.79969e-18)
(0.10354 0.031054 -1.31415e-17)
(0.1156 0.0330252 2.23112e-18)
(0.126953 0.0344372 -1.52954e-17)
(0.137589 0.0351759 4.15756e-18)
(0.14713 0.0351221 -1.41597e-17)
(0.155723 0.0343404 7.28883e-19)
(0.163337 0.0328411 -1.61342e-17)
(0.170119 0.0307403 -3.37283e-18)
(0.176125 0.0281067 -1.02837e-17)
(0.181448 0.0250242 -1.01826e-18)
(0.186138 0.021573 -1.07322e-17)
(0.19027 0.0177887 1.44272e-18)
(0.193843 0.0137474 -8.02201e-18)
(0.196949 0.00948353 3.60705e-18)
(0.199553 0.00501994 -3.95364e-18)