/*--------------------------------*- C++ -*----------------------------------*\
| =========                 |                                                 |
| \\      /  F ield         | OpenFOAM: The Open Source CFD Toolbox           |
|  \\    /   O peration     | Version:  v2006                                 |
|   \\  /    A nd           | Website:  www.openfoam.com                      |
|    \\/     M anipulation  |                                                 |
\*---------------------------------------------------------------------------*/
FoamFile
{
    version     2.0;
    format      ascii;
    class       volScalarField;
    location    "160";
    object      yPlus;
}
// * * * * * * * * * * * * * * * * * * * * * * * * * * * * * * * * * * * * * //

dimensions      [0 0 0 0 0 0 0];


internalField   uniform 0;

boundaryField
{
    cylinder
    {
        type            calculated;
        value           nonuniform List<scalar> 
256
(
9.6156
23.3107
41.5012
68.8134
117.203
170.667
261.241
171.104
177.248
133.906
116.912
135.627
123.684
114.852
108.099
103.339
99.2518
91.8189
90.455
90.0608
88.0174
86.2422
84.5927
82.729
81.7909
80.5333
79.5965
78.393
77.7671
76.9785
76.1954
75.5984
74.969
74.344
73.8178
73.3143
72.7732
72.2411
71.7573
71.3873
71.0186
70.7
70.3398
70.0215
69.699
69.4211
69.1703
68.8877
68.638
68.4564
68.2803
68.0708
67.9335
67.7924
67.6496
67.4918
67.4177
67.3133
67.1963
67.1552
67.1081
67.0468
67.0425
67.0432
67.0485
67.0659
67.0897
67.1226
67.1796
67.2407
67.3192
67.4032
67.499
67.6194
67.7571
67.9036
68.0718
68.2556
68.439
68.6464
68.8668
69.1159
69.3747
69.6569
69.9498
70.2585
70.6064
70.9747
71.3814
71.7996
72.2426
72.7244
73.2097
73.7553
74.3343
74.9802
75.6313
76.3336
77.0877
77.9354
78.8202
79.7984
80.8533
82.0668
83.3712
84.8375
86.4946
88.3286
90.4867
92.939
95.8114
99.2279
103.348
108.555
115.133
123.957
136.263
154.793
186.062
237.421
247.771
305.341
169.912
117.785
69.2273
41.7457
23.4287
9.65958
8.84529
16.7508
22.5111
27.0072
30.6082
33.5769
36.0696
38.1791
40.0012
41.5934
42.9751
44.2032
45.2786
46.2452
47.1075
47.878
48.5742
49.2042
49.7668
50.2895
50.7481
51.1704
51.5461
51.8817
52.1929
52.4804
52.726
52.954
53.1689
53.3481
53.5067
53.6609
53.8234
53.9325
54.0502
54.1584
54.2485
54.3261
54.4032
54.4663
54.5351
54.5939
54.6483
54.6874
54.7298
54.762
54.7833
54.8009
54.8159
54.8358
54.8539
54.8612
54.859
54.871
54.8638
54.8717
54.8735
54.8794
54.8765
54.8771
54.8788
54.8718
54.8856
54.872
54.8809
54.8842
54.8618
54.8803
54.8467
54.8707
54.8687
54.8846
54.8347
54.8608
54.8298
54.8291
54.8219
54.8311
54.8382
54.7542
54.7541
54.744
54.7342
54.725
54.6844
54.6657
54.6153
54.569
54.5042
54.5633
54.4598
54.4035
54.247
54.1384
53.9863
53.8919
53.6906
53.5442
53.3481
53.1241
52.942
52.6831
52.4197
52.122
51.714
51.3574
50.9865
50.5115
50.0606
49.5532
48.9527
48.3703
47.6792
46.8569
45.9837
44.973
43.8611
42.5826
41.2703
39.6901
37.8957
35.8108
33.3098
30.3509
26.7741
22.3283
16.6234
8.79623
)
;
    }
    periodicity1
    {
        type            empty;
    }
    periodicity2
    {
        type            empty;
    }
    wake2
    {
        type            calculated;
        value           uniform 0;
    }
    inFlow
    {
        type            calculated;
        value           uniform 0;
    }
    wake1
    {
        type            calculated;
        value           uniform 0;
    }
}


// ************************************************************************* //
